# vtk DataFile Version 3.0
Output from R3t
ASCII
DATASET UNSTRUCTURED_GRID
POINTS       8966 double
      0.50000000E-01     -0.50000000E-02      0.48500000E+00
      0.10000000E+00     -0.50000000E-02      0.48500000E+00
      0.15000000E+00     -0.50000000E-02      0.48500000E+00
      0.20000000E+00     -0.50000000E-02      0.48500000E+00
      0.25000000E+00     -0.50000000E-02      0.48500000E+00
      0.30000000E+00     -0.50000000E-02      0.48500000E+00
      0.35000000E+00     -0.50000000E-02      0.48500000E+00
      0.40000000E+00     -0.50000000E-02      0.48500000E+00
      0.50000000E-01      0.00000000E+00      0.42500000E+00
      0.10000000E+00      0.00000000E+00      0.42500000E+00
      0.15000000E+00      0.00000000E+00      0.42500000E+00
      0.20000000E+00      0.00000000E+00      0.42500000E+00
      0.25000000E+00      0.00000000E+00      0.42500000E+00
      0.30000000E+00      0.00000000E+00      0.42500000E+00
      0.35000000E+00      0.00000000E+00      0.42500000E+00
      0.40000000E+00      0.00000000E+00      0.42500000E+00
      0.50000000E-01      0.00000000E+00      0.37500000E+00
      0.10000000E+00      0.00000000E+00      0.37500000E+00
      0.15000000E+00      0.00000000E+00      0.37500000E+00
      0.20000000E+00      0.00000000E+00      0.37500000E+00
      0.25000000E+00      0.00000000E+00      0.37500000E+00
      0.30000000E+00      0.00000000E+00      0.37500000E+00
      0.35000000E+00      0.00000000E+00      0.37500000E+00
      0.40000000E+00      0.00000000E+00      0.37500000E+00
      0.50000000E-01      0.00000000E+00      0.32500000E+00
      0.10000000E+00      0.00000000E+00      0.32500000E+00
      0.15000000E+00      0.00000000E+00      0.32500000E+00
      0.20000000E+00      0.00000000E+00      0.32500000E+00
      0.25000000E+00      0.00000000E+00      0.32500000E+00
      0.30000000E+00      0.00000000E+00      0.32500000E+00
      0.35000000E+00      0.00000000E+00      0.32500000E+00
      0.40000000E+00      0.00000000E+00      0.32500000E+00
      0.50000000E-01      0.00000000E+00      0.27500000E+00
      0.10000000E+00      0.00000000E+00      0.27500000E+00
      0.15000000E+00      0.00000000E+00      0.27500000E+00
      0.20000000E+00      0.00000000E+00      0.27500000E+00
      0.25000000E+00      0.00000000E+00      0.27500000E+00
      0.30000000E+00      0.00000000E+00      0.27500000E+00
      0.35000000E+00      0.00000000E+00      0.27500000E+00
      0.40000000E+00      0.00000000E+00      0.27500000E+00
      0.50000000E-01      0.00000000E+00      0.22500000E+00
      0.10000000E+00      0.00000000E+00      0.22500000E+00
      0.15000000E+00      0.00000000E+00      0.22500000E+00
      0.20000000E+00      0.00000000E+00      0.22500000E+00
      0.25000000E+00      0.00000000E+00      0.22500000E+00
      0.30000000E+00      0.00000000E+00      0.22500000E+00
      0.35000000E+00      0.00000000E+00      0.22500000E+00
      0.40000000E+00      0.00000000E+00      0.22500000E+00
      0.50000000E-01      0.00000000E+00      0.17500000E+00
      0.10000000E+00      0.00000000E+00      0.17500000E+00
      0.15000000E+00      0.00000000E+00      0.17500000E+00
      0.20000000E+00      0.00000000E+00      0.17500000E+00
      0.25000000E+00      0.00000000E+00      0.17500000E+00
      0.30000000E+00      0.00000000E+00      0.17500000E+00
      0.35000000E+00      0.00000000E+00      0.17500000E+00
      0.40000000E+00      0.00000000E+00      0.17500000E+00
      0.50000000E-01      0.00000000E+00      0.12500000E+00
      0.10000000E+00      0.00000000E+00      0.12500000E+00
      0.15000000E+00      0.00000000E+00      0.12500000E+00
      0.20000000E+00      0.00000000E+00      0.12500000E+00
      0.25000000E+00      0.00000000E+00      0.12500000E+00
      0.30000000E+00      0.00000000E+00      0.12500000E+00
      0.35000000E+00      0.00000000E+00      0.12500000E+00
      0.40000000E+00      0.00000000E+00      0.12500000E+00
      0.50000000E-01      0.00000000E+00      0.75000000E-01
      0.10000000E+00      0.00000000E+00      0.75000000E-01
      0.15000000E+00      0.00000000E+00      0.75000000E-01
      0.20000000E+00      0.00000000E+00      0.75000000E-01
      0.25000000E+00      0.00000000E+00      0.75000000E-01
      0.30000000E+00      0.00000000E+00      0.75000000E-01
      0.35000000E+00      0.00000000E+00      0.75000000E-01
      0.40000000E+00      0.00000000E+00      0.75000000E-01
      0.00000000E+00      0.00000000E+00      0.00000000E+00
      0.45000000E+00      0.00000000E+00      0.00000000E+00
      0.00000000E+00      0.00000000E+00      0.50000000E+00
      0.45000000E+00      0.00000000E+00      0.50000000E+00
      0.00000000E+00     -0.30000000E-01      0.00000000E+00
      0.45000000E+00     -0.30000000E-01      0.00000000E+00
      0.00000000E+00     -0.30000000E-01      0.50000000E+00
      0.45000000E+00     -0.30000000E-01      0.50000000E+00
      0.11241060E-01      0.00000000E+00      0.11242680E-01
      0.64991060E-01      0.00000000E+00      0.11242680E-01
      0.11874106E+00      0.00000000E+00      0.11242680E-01
      0.17249106E+00      0.00000000E+00      0.11242680E-01
      0.22624106E+00      0.00000000E+00      0.11242680E-01
      0.27999106E+00      0.00000000E+00      0.11242680E-01
      0.33374106E+00      0.00000000E+00      0.11242680E-01
      0.38749106E+00      0.00000000E+00      0.11242680E-01
      0.44124106E+00      0.00000000E+00      0.11242680E-01
      0.11241060E-01      0.00000000E+00      0.64992680E-01
      0.64991060E-01      0.00000000E+00      0.64992680E-01
      0.11874106E+00      0.00000000E+00      0.64992680E-01
      0.17249106E+00      0.00000000E+00      0.64992680E-01
      0.22624106E+00      0.00000000E+00      0.64992680E-01
      0.27999106E+00      0.00000000E+00      0.64992680E-01
      0.33374106E+00      0.00000000E+00      0.64992680E-01
      0.38749106E+00      0.00000000E+00      0.64992680E-01
      0.44124106E+00      0.00000000E+00      0.64992680E-01
      0.11241060E-01      0.00000000E+00      0.11874268E+00
      0.64991060E-01      0.00000000E+00      0.11874268E+00
      0.11874106E+00      0.00000000E+00      0.11874268E+00
      0.17249106E+00      0.00000000E+00      0.11874268E+00
      0.22624106E+00      0.00000000E+00      0.11874268E+00
      0.27999106E+00      0.00000000E+00      0.11874268E+00
      0.33374106E+00      0.00000000E+00      0.11874268E+00
      0.38749106E+00      0.00000000E+00      0.11874268E+00
      0.44124106E+00      0.00000000E+00      0.11874268E+00
      0.11241060E-01      0.00000000E+00      0.17249268E+00
      0.64991060E-01      0.00000000E+00      0.17249268E+00
      0.11874106E+00      0.00000000E+00      0.17249268E+00
      0.17249106E+00      0.00000000E+00      0.17249268E+00
      0.22624106E+00      0.00000000E+00      0.17249268E+00
      0.27999106E+00      0.00000000E+00      0.17249268E+00
      0.33374106E+00      0.00000000E+00      0.17249268E+00
      0.38749106E+00      0.00000000E+00      0.17249268E+00
      0.44124106E+00      0.00000000E+00      0.17249268E+00
      0.11241060E-01      0.00000000E+00      0.22624268E+00
      0.64991060E-01      0.00000000E+00      0.22624268E+00
      0.11874106E+00      0.00000000E+00      0.22624268E+00
      0.17249106E+00      0.00000000E+00      0.22624268E+00
      0.22624106E+00      0.00000000E+00      0.22624268E+00
      0.27999106E+00      0.00000000E+00      0.22624268E+00
      0.33374106E+00      0.00000000E+00      0.22624268E+00
      0.38749106E+00      0.00000000E+00      0.22624268E+00
      0.44124106E+00      0.00000000E+00      0.22624268E+00
      0.11241060E-01      0.00000000E+00      0.27999268E+00
      0.64991060E-01      0.00000000E+00      0.27999268E+00
      0.11874106E+00      0.00000000E+00      0.27999268E+00
      0.17249106E+00      0.00000000E+00      0.27999268E+00
      0.22624106E+00      0.00000000E+00      0.27999268E+00
      0.27999106E+00      0.00000000E+00      0.27999268E+00
      0.33374106E+00      0.00000000E+00      0.27999268E+00
      0.38749106E+00      0.00000000E+00      0.27999268E+00
      0.44124106E+00      0.00000000E+00      0.27999268E+00
      0.11241060E-01      0.00000000E+00      0.33374268E+00
      0.64991060E-01      0.00000000E+00      0.33374268E+00
      0.11874106E+00      0.00000000E+00      0.33374268E+00
      0.17249106E+00      0.00000000E+00      0.33374268E+00
      0.22624106E+00      0.00000000E+00      0.33374268E+00
      0.27999106E+00      0.00000000E+00      0.33374268E+00
      0.33374106E+00      0.00000000E+00      0.33374268E+00
      0.38749106E+00      0.00000000E+00      0.33374268E+00
      0.44124106E+00      0.00000000E+00      0.33374268E+00
      0.11241060E-01      0.00000000E+00      0.38749268E+00
      0.64991060E-01      0.00000000E+00      0.38749268E+00
      0.11874106E+00      0.00000000E+00      0.38749268E+00
      0.17249106E+00      0.00000000E+00      0.38749268E+00
      0.22624106E+00      0.00000000E+00      0.38749268E+00
      0.27999106E+00      0.00000000E+00      0.38749268E+00
      0.33374106E+00      0.00000000E+00      0.38749268E+00
      0.38749106E+00      0.00000000E+00      0.38749268E+00
      0.44124106E+00      0.00000000E+00      0.38749268E+00
      0.11241060E-01      0.00000000E+00      0.44124268E+00
      0.64991060E-01      0.00000000E+00      0.44124268E+00
      0.11874106E+00      0.00000000E+00      0.44124268E+00
      0.17249106E+00      0.00000000E+00      0.44124268E+00
      0.22624106E+00      0.00000000E+00      0.44124268E+00
      0.27999106E+00      0.00000000E+00      0.44124268E+00
      0.33374106E+00      0.00000000E+00      0.44124268E+00
      0.38749106E+00      0.00000000E+00      0.44124268E+00
      0.44124106E+00      0.00000000E+00      0.44124268E+00
      0.11241060E-01      0.00000000E+00      0.49499268E+00
[...]
POINT_DATA      8966
CELL_DATA     34178
SCALARS Resistivity(ohm.m) double 1
LOOKUP_TABLE default
            22.79367            24.56009            33.87291            25.52250            24.36398            26.17767            39.57775            33.50057            37.91768            18.97194            20.46923            32.45795            32.60460            26.22864            32.22753            37.75543            45.77633            28.14963            14.60544            34.30823            38.58576            27.17978            40.83046            12.70698            27.93263            43.63087            41.47501            43.09131            42.22892            49.88546            36.00462            15.31607            31.07851            42.40946            48.80447            34.48216            25.96650            18.73867            37.40270            24.07000            39.96921            23.99376            18.61258            45.09268            22.71725            35.60388            30.85096            53.70427            24.60304            20.88596            34.09708            27.67334            27.32780            27.02165            19.92940            42.22169            19.89571            32.55304            26.04146            13.20675            27.25957            30.57696            33.49556            27.45370            41.05466            48.35003            55.26844            22.60208            15.45970            17.67244            47.84562            54.23166            17.88001            37.64100            42.57386            24.11138            55.53516            33.51181            16.68918            43.26566            12.26946            37.28792            26.79757            43.66906            43.22252            39.59977            27.13190            24.40044            14.29246            38.99910            33.95145            41.23603            39.48451            48.63274            14.29790            38.90259            46.86449            26.85627            45.10697            49.00167            20.52530            22.59696            30.52546            26.77770            13.44376            24.00854            22.50118            47.53400            22.73786            35.39941            39.42880            38.90658            34.55287            36.26208            43.84005            12.60222            38.71247            17.10507            26.88675            37.81897            30.97703            18.10044            16.07523            30.88402            29.81060            21.79736            35.93457            43.80220            43.21435            37.46156            48.56792            37.01237            18.63827            31.21611            37.62595            30.90105            45.57762            33.57875            19.31295            36.59703            18.55433            34.51923            17.75945            33.39194            15.63513            32.44998            25.29479            16.53427            33.73307            25.74598            16.66585            32.36597            21.21663            34.20332            39.41737            29.47447            42.60399            43.57180            33.62781            28.28080            21.48722            23.62979            31.41844            25.53393            43.90341            45.17953            50.44296            36.17656            45.87548            43.01171            16.99336            40.04492            47.48704            27.79951            42.15865            23.58500            13.60542            15.62666            40.41063            20.33687            46.18281            33.73960            39.51140            27.73440            30.52892            24.57516            11.87867            32.30838            27.81935            18.80911            11.74903            41.06480            37.42474            23.60438            29.78239            44.13098            33.59221            33.54201            27.34219            27.69035            54.84052            35.96525            12.67740            37.58193            24.75793            19.08217            31.58493            16.89359            27.47490            27.56083            48.08666            17.47884            37.40824            40.21650            29.02832            33.93313            23.07313            18.33480            39.83173            35.16497            35.06451            43.20477            13.77112            22.32442            24.67929            16.94665            45.94815            26.19568            34.89712            22.72207            24.46342            37.28957            35.66122            19.68171            46.13479            33.06575            48.89396            49.70560            43.69768            46.88572            25.45176            44.26112            46.09860            35.09386            37.41268            15.32031            43.95424            43.59931            34.14309            30.51623            33.66225            34.88376            28.83977            42.32682            24.27538            21.10225            25.69909            45.00093            34.55131            44.48744            24.39592            43.54310            15.96837            15.73282            26.12916            17.90970            33.65784            40.18221            28.90770            35.74871            26.17771            31.98664            23.01791            27.92402            45.23521            49.02750            33.88433            54.24449            46.03582            43.43743            43.42077            21.64053            38.45942            20.21183            23.75806            40.81801            27.68655            36.23767            13.69928            42.31877            39.50968            40.29625            12.80238            48.41593            28.69148            35.27905            24.93317            24.08058            46.30175            41.24825            35.99334            44.22310            53.09080            35.11905            26.20456            18.64894            27.51231            37.24762            35.38613            43.08052            11.57594            26.55884            32.45360            31.82385            37.19824            21.78820            45.93386            35.08531            37.24689            14.50774            45.78485            33.78173            14.12438            33.81002            30.63295            40.19129            45.13699            34.59236            13.61461            18.56038            41.69069            34.34593            29.26022            43.86059            45.47587            49.79908            33.08461            29.78892            23.31465            32.79710            27.91538            20.53835            47.67104            49.08352            20.51547            22.70575            35.68945            31.19237            32.29050            16.92661            30.64323            24.84009            43.29574            32.95959            16.84057            26.87087            28.94176            26.73861            29.18539            11.76736            46.55835            26.32010            22.81965            32.40420            30.34467            18.46946            44.19170            44.99321            36.10679            27.37106            14.08706            53.21359            13.92092            49.70224            39.49378            26.34901            14.52168            34.05184            42.88778            30.81181            24.88435            24.52777            35.60220            41.51891            27.92036            28.36852            36.31377            20.08002            41.92594            25.63571            33.19033            38.25114            42.76990            24.48031            43.36801            35.52136            36.05514            35.06808            38.99784            23.72678            35.81309            44.78346            31.11577            27.18103            24.54325            33.16073            29.07233            23.23235            56.04411            42.03849            24.73094            29.87139            30.36426            14.68226            54.55347            15.49258            26.89608            15.12538            39.95604            30.11293            38.38182            28.75657            31.74818            27.61527            12.88895            44.61840            46.51598            47.13196            41.24375            45.31366            42.34994            36.28269            43.53209            41.07751            44.71907            33.24019            16.96696            23.65271            39.25252            27.56844            45.47565            28.56796            44.03695            27.23419            29.01889            29.29770            44.11226            46.82575            34.23678            32.48102            27.46141            26.07471            42.75077            33.50327            40.61107            42.94501            45.46063            39.17169            16.94431            37.12493            11.74050            40.30182            29.81273            25.96231            35.97218            32.76637            13.61628            26.97945            25.89855            32.17039            16.98702            11.70197            27.30887            24.48424            54.93847            34.72491            29.62169            13.97696            41.12528            22.67919            43.23178            27.07751            22.86816            26.87476            22.27105            42.61205            22.93813            27.00726            41.34684            17.38239            37.99661            34.25402            38.81957            24.46604            36.61821            27.35703            39.23511            33.84504            32.53018            27.98767            42.98059            36.01387            36.70821            24.21528            24.27976            42.68327            39.64647            17.02997            38.90847            20.04351            57.12223            36.36645            45.93423            34.05807            43.08037            24.14187            42.00567            37.27913            19.50837            19.29608            14.74333            28.52217            39.11237            38.60059            21.68949            35.09240            19.37554            30.38486            21.30677            37.04235            12.33170            44.28094            27.35930            36.81342            20.32640            33.50681            26.81062            17.97158            14.70068            12.99272            33.44695            31.22742            34.19521            31.81689            40.95214            35.19205            16.75646            22.83756            37.24668            32.28296            41.98821            57.55161            47.08725            22.12463            36.12218            26.40301            25.88307            44.60392            39.60274            29.27983            13.44454            34.61136            43.80252            15.86415            29.89684            47.23874            33.93669            38.75942            36.87005            47.34240            38.28828            19.71034            16.75301            47.61669            31.20235            39.31151            48.65615            19.45485            16.07003            35.67138            27.43269            30.48172            14.87319            32.75379            33.63572            29.75638            28.33539            35.87865            32.26133            36.42904            45.92775            35.65860            45.53792            21.85906            25.71667            43.82097            29.00484            24.72949            35.56868            49.86818            51.86109            28.47708            37.12659            25.24692            27.09570            47.50077            35.49210            21.27556            23.09011            26.75146            37.62536            13.25286            43.12999            32.91981            24.61698            26.84950            35.07485            36.04101            33.48615            43.71162            22.59009            23.43146            16.57448            27.29223            35.09139            46.67436            23.94004            26.83926            28.37365            22.33031            29.56203            28.32209            26.70144            45.34612            49.44671            15.04542            20.54165            27.63680            11.72162            40.39841            13.85890            19.55677            30.84933            25.83765            35.22303            45.06142            32.81267            43.91807            33.12909            45.45948            32.45970            16.68983            27.22144            26.06511            36.36252            27.62944            25.54779            41.40152            41.14350            39.92350            21.57068            17.04785            42.28347            53.58168            35.67785            31.03708            21.09691            33.98046            32.46864            27.85319            37.54769            34.13257            22.48338            16.01577            48.53586            45.58643            36.86746            23.94404            36.70587            27.54517            16.89376            27.39147            25.94139            21.41860            25.27331            35.33115            33.52227            34.55620            26.52498            28.43935            27.45258            40.82847            40.56703            47.00022            22.78738            13.80669            37.57551            40.64773            36.20903            28.72372            21.90214            37.39875            33.78810            45.96213            26.68200            30.49820            39.63989            25.76705            21.86603            32.29479            17.78256            42.86624            34.28204            45.26183            22.17753            31.16070            27.84185            25.20576            44.25171            46.61442            13.99471            32.99513            18.70717            42.69970            19.65150            25.89015            16.11799            27.09257            35.06407            27.78027            42.52950            38.18673            12.84661            23.05067            31.22286            32.11329            35.93975            23.68332            48.43765            54.10651            33.48729            17.23226            41.68043            14.71168            31.51478            34.14092            15.20157            29.83307            24.02632            31.83836            40.19352            26.67225            24.92529            12.89036            28.37011            29.60210            33.01034            43.10897            23.54391            46.38709            27.23001            30.75492            34.18678            42.87444            39.05416            22.13375            25.11393            22.86167            39.68952            47.10987            51.03576            22.75906            25.54328            12.22779            21.11489            29.31546            34.01727            23.88046            41.83391            48.38533            47.33472            27.17286            34.24109            33.65130            30.63214            42.72386            49.32592            27.55652            22.87336            35.40373            24.56192            42.68110            56.90675            41.23765            17.02648            28.72640            32.08066            31.34033            27.90548            30.79215            14.97297            43.22464            37.23446            18.65975            29.41147            32.87936            24.50790            27.45112            24.02383            45.64188            45.01327            40.96878            27.45141            44.92607            42.71779            26.62134            38.61047            23.27996            32.73450            12.96471            16.84871            17.17809            22.38911            27.03354            27.40700            16.77304            22.23860            29.78995            25.82173            14.56194            37.29238            31.76340            46.35665            48.29036            38.53653            27.67057            43.11131            21.58767            12.33166            27.36929            28.90693            40.85260            57.63565            36.18927            35.76058            35.08659            30.71175            44.60022            24.77531            12.36543            26.80744            30.83835            24.69855            30.24808            44.76262            49.68963            44.23181            22.79685            23.98085            31.37191            35.66686            36.53956            30.90750            12.25743            35.71055            20.00432            42.11492            39.91333            49.08579            22.20427            23.61431            42.81745            17.34891            24.69828            15.58422            45.01934            44.18425            48.91214            35.65189            43.02678            42.13869            23.20331            28.21820            39.32216            43.61248            37.56126            12.52410            31.35844            36.57471            33.09079            31.97916            39.13903            44.33981            49.85647            34.33053            21.54877            39.92665            36.84872            45.61371            26.63252            23.16327            45.25450            27.93941            27.86336            26.44277            19.43327            35.07035            30.09582            49.36457            25.01099            34.00590            44.58644            34.67998            42.73467            49.21133            35.49648            36.16846            14.21832            31.55788            41.93601            24.28543            29.12257            54.40739            27.52303            14.67614            44.07894            26.93464            27.87922            43.93673            30.08577            33.85499            30.04427            43.95440            28.35146            17.77533            17.12105            50.04866            24.78268            13.80173            42.60409            14.97472            21.52693            17.68734            14.31923            14.60114            33.84787            15.62117            34.56574            38.36869            27.75043            36.62074            17.28923            34.09289            39.88376            16.13244            21.29740            39.41044            37.38309            24.71386            23.84225            35.95832            35.74512            37.05824            27.80685            41.61720            16.81492            41.79129            50.56601            13.18345            14.61996            29.15261            17.17685            36.72274            15.91231            21.06726            46.58033            44.68520            47.99256            34.56792            50.72125            34.67956            43.17548            14.47333            36.65617            16.26733            28.56872            11.85907            44.75562            39.03810            19.35341            18.89125            44.50826            12.79455            31.74738            27.87104  