# vtk DataFile Version 3.0
Output from R3t
ASCII
DATASET UNSTRUCTURED_GRID
POINTS       9925 double
      0.60000000E-01      0.00000000E+00      0.48700000E+00
      0.11000000E+00      0.00000000E+00      0.48700000E+00
      0.16000000E+00      0.00000000E+00      0.48700000E+00
      0.21000000E+00      0.00000000E+00      0.48700000E+00
      0.26000000E+00      0.00000000E+00      0.48700000E+00
      0.31000000E+00      0.00000000E+00      0.48700000E+00
      0.36000000E+00      0.00000000E+00      0.48700000E+00
      0.41000000E+00      0.00000000E+00      0.48700000E+00
      0.60000000E-01      0.00000000E+00      0.43500000E+00
      0.11000000E+00      0.00000000E+00      0.43500000E+00
      0.16000000E+00      0.00000000E+00      0.43500000E+00
      0.21000000E+00      0.00000000E+00      0.43500000E+00
      0.26000000E+00      0.00000000E+00      0.43500000E+00
      0.31000000E+00      0.00000000E+00      0.43500000E+00
      0.36000000E+00      0.00000000E+00      0.43500000E+00
      0.41000000E+00      0.00000000E+00      0.43500000E+00
      0.60000000E-01      0.00000000E+00      0.38500000E+00
      0.11000000E+00      0.00000000E+00      0.38500000E+00
      0.16000000E+00      0.00000000E+00      0.38500000E+00
      0.21000000E+00      0.00000000E+00      0.38500000E+00
      0.26000000E+00      0.00000000E+00      0.38500000E+00
      0.31000000E+00      0.00000000E+00      0.38500000E+00
      0.36000000E+00      0.00000000E+00      0.38500000E+00
      0.41000000E+00      0.00000000E+00      0.38500000E+00
      0.60000000E-01      0.00000000E+00      0.33500000E+00
      0.11000000E+00      0.00000000E+00      0.33500000E+00
      0.16000000E+00      0.00000000E+00      0.33500000E+00
      0.21000000E+00      0.00000000E+00      0.33500000E+00
      0.26000000E+00      0.00000000E+00      0.33500000E+00
      0.31000000E+00      0.00000000E+00      0.33500000E+00
      0.36000000E+00      0.00000000E+00      0.33500000E+00
      0.41000000E+00      0.00000000E+00      0.33500000E+00
      0.60000000E-01      0.00000000E+00      0.28500000E+00
      0.11000000E+00      0.00000000E+00      0.28500000E+00
      0.16000000E+00      0.00000000E+00      0.28500000E+00
      0.21000000E+00      0.00000000E+00      0.28500000E+00
      0.26000000E+00      0.00000000E+00      0.28500000E+00
      0.31000000E+00      0.00000000E+00      0.28500000E+00
      0.36000000E+00      0.00000000E+00      0.28500000E+00
      0.41000000E+00      0.00000000E+00      0.28500000E+00
      0.60000000E-01      0.00000000E+00      0.23500000E+00
      0.11000000E+00      0.00000000E+00      0.23500000E+00
      0.16000000E+00      0.00000000E+00      0.23500000E+00
      0.21000000E+00      0.00000000E+00      0.23500000E+00
      0.26000000E+00      0.00000000E+00      0.23500000E+00
      0.31000000E+00      0.00000000E+00      0.23500000E+00
      0.36000000E+00      0.00000000E+00      0.23500000E+00
      0.41000000E+00      0.00000000E+00      0.23500000E+00
      0.60000000E-01      0.00000000E+00      0.18500000E+00
      0.11000000E+00      0.00000000E+00      0.18500000E+00
      0.16000000E+00      0.00000000E+00      0.18500000E+00
      0.21000000E+00      0.00000000E+00      0.18500000E+00
      0.26000000E+00      0.00000000E+00      0.18500000E+00
      0.31000000E+00      0.00000000E+00      0.18500000E+00
      0.36000000E+00      0.00000000E+00      0.18500000E+00
      0.41000000E+00      0.00000000E+00      0.18500000E+00
      0.60000000E-01      0.00000000E+00      0.13500000E+00
      0.11000000E+00      0.00000000E+00      0.13500000E+00
      0.16000000E+00      0.00000000E+00      0.13500000E+00
      0.21000000E+00      0.00000000E+00      0.13500000E+00
      0.26000000E+00      0.00000000E+00      0.13500000E+00
      0.31000000E+00      0.00000000E+00      0.13500000E+00
      0.36000000E+00      0.00000000E+00      0.13500000E+00
      0.41000000E+00      0.00000000E+00      0.13500000E+00
      0.60000000E-01      0.00000000E+00      0.85000000E-01
      0.11000000E+00      0.00000000E+00      0.85000000E-01
      0.16000000E+00      0.00000000E+00      0.85000000E-01
      0.21000000E+00      0.00000000E+00      0.85000000E-01
      0.26000000E+00      0.00000000E+00      0.85000000E-01
      0.31000000E+00      0.00000000E+00      0.85000000E-01
      0.36000000E+00      0.00000000E+00      0.85000000E-01
      0.41000000E+00      0.00000000E+00      0.85000000E-01
      0.00000000E+00      0.00000000E+00      0.00000000E+00
      0.47000000E+00      0.00000000E+00      0.00000000E+00
      0.00000000E+00      0.00000000E+00      0.50000000E+00
      0.47000000E+00      0.00000000E+00      0.50000000E+00
      0.00000000E+00     -0.30000000E-01      0.00000000E+00
      0.47000000E+00     -0.30000000E-01      0.00000000E+00
      0.00000000E+00     -0.30000000E-01      0.50000000E+00
      0.47000000E+00     -0.30000000E-01      0.50000000E+00
      0.87687900E-02      0.00000000E+00      0.87627500E-02
      0.65643790E-01      0.00000000E+00      0.87627500E-02
      0.12251879E+00      0.00000000E+00      0.87627500E-02
      0.17939379E+00      0.00000000E+00      0.87627500E-02
      0.23626879E+00      0.00000000E+00      0.87627500E-02
      0.29314379E+00      0.00000000E+00      0.87627500E-02
      0.35001879E+00      0.00000000E+00      0.87627500E-02
      0.40689379E+00      0.00000000E+00      0.87627500E-02
      0.46376879E+00      0.00000000E+00      0.87627500E-02
      0.87687900E-02      0.00000000E+00      0.67637750E-01
      0.65643790E-01      0.00000000E+00      0.67637750E-01
      0.12251879E+00      0.00000000E+00      0.67637750E-01
      0.17939379E+00      0.00000000E+00      0.67637750E-01
      0.23626879E+00      0.00000000E+00      0.67637750E-01
      0.29314379E+00      0.00000000E+00      0.67637750E-01
      0.35001879E+00      0.00000000E+00      0.67637750E-01
      0.40689379E+00      0.00000000E+00      0.67637750E-01
      0.46376879E+00      0.00000000E+00      0.67637750E-01
      0.87687900E-02      0.00000000E+00      0.12651275E+00
      0.65643790E-01      0.00000000E+00      0.12651275E+00
      0.12251879E+00      0.00000000E+00      0.12651275E+00
      0.17939379E+00      0.00000000E+00      0.12651275E+00
      0.23626879E+00      0.00000000E+00      0.12651275E+00
      0.29314379E+00      0.00000000E+00      0.12651275E+00
      0.35001879E+00      0.00000000E+00      0.12651275E+00
      0.40689379E+00      0.00000000E+00      0.12651275E+00
      0.46376879E+00      0.00000000E+00      0.12651275E+00
      0.87687900E-02      0.00000000E+00      0.18538775E+00
      0.65643790E-01      0.00000000E+00      0.18538775E+00
      0.12251879E+00      0.00000000E+00      0.18538775E+00
      0.17939379E+00      0.00000000E+00      0.18538775E+00
      0.23626879E+00      0.00000000E+00      0.18538775E+00
      0.29314379E+00      0.00000000E+00      0.18538775E+00
      0.35001879E+00      0.00000000E+00      0.18538775E+00
      0.40689379E+00      0.00000000E+00      0.18538775E+00
      0.46376879E+00      0.00000000E+00      0.18538775E+00
      0.87687900E-02      0.00000000E+00      0.24426275E+00
      0.65643790E-01      0.00000000E+00      0.24426275E+00
      0.12251879E+00      0.00000000E+00      0.24426275E+00
      0.17939379E+00      0.00000000E+00      0.24426275E+00
      0.23626879E+00      0.00000000E+00      0.24426275E+00
      0.29314379E+00      0.00000000E+00      0.24426275E+00
      0.35001879E+00      0.00000000E+00      0.24426275E+00
      0.40689379E+00      0.00000000E+00      0.24426275E+00
      0.46376879E+00      0.00000000E+00      0.24426275E+00
      0.87687900E-02      0.00000000E+00      0.30313775E+00
      0.65643790E-01      0.00000000E+00      0.30313775E+00
      0.12251879E+00      0.00000000E+00      0.30313775E+00
      0.17939379E+00      0.00000000E+00      0.30313775E+00
      0.23626879E+00      0.00000000E+00      0.30313775E+00
      0.29314379E+00      0.00000000E+00      0.30313775E+00
      0.35001879E+00      0.00000000E+00      0.30313775E+00
      0.40689379E+00      0.00000000E+00      0.30313775E+00
      0.46376879E+00      0.00000000E+00      0.30313775E+00
      0.87687900E-02      0.00000000E+00      0.36201275E+00
      0.65643790E-01      0.00000000E+00      0.36201275E+00
      0.12251879E+00      0.00000000E+00      0.36201275E+00
      0.17939379E+00      0.00000000E+00      0.36201275E+00
      0.23626879E+00      0.00000000E+00      0.36201275E+00
      0.29314379E+00      0.00000000E+00      0.36201275E+00
      0.35001879E+00      0.00000000E+00      0.36201275E+00
      0.40689379E+00      0.00000000E+00      0.36201275E+00
      0.46376879E+00      0.00000000E+00      0.36201275E+00
      0.87687900E-02      0.00000000E+00      0.42088775E+00
      0.65643790E-01      0.00000000E+00      0.42088775E+00
      0.12251879E+00      0.00000000E+00      0.42088775E+00
      0.17939379E+00      0.00000000E+00      0.42088775E+00
      0.23626879E+00      0.00000000E+00      0.42088775E+00
      0.29314379E+00      0.00000000E+00      0.42088775E+00
      0.35001879E+00      0.00000000E+00      0.42088775E+00
      0.40689379E+00      0.00000000E+00      0.42088775E+00
      0.46376879E+00      0.00000000E+00      0.42088775E+00
      0.87687900E-02      0.00000000E+00      0.47976275E+00
      0.65643790E-01      0.00000000E+00      0.47976275E+00
      0.12251879E+00      0.00000000E+00      0.47976275E+00
      0.17939379E+00      0.00000000E+00      0.47976275E+00
      0.23626879E+00      0.00000000E+00      0.47976275E+00
      0.29314379E+00      0.00000000E+00      0.47976275E+00
      0.35001879E+00      0.00000000E+00      0.47976275E+00
      0.40689379E+00      0.00000000E+00      0.47976275E+00
      0.46376879E+00      0.00000000E+00      0.47976275E+00
      0.00000000E+00     -0.30000000E-01      0.10000000E-01
[...]
POINT_DATA      9925
CELL_DATA     38427
SCALARS Resistivity(ohm.m) double 1
LOOKUP_TABLE default
            23.05854            26.83805            37.32335            32.91232            40.32538            41.95106            20.42196            39.25253            40.63175            22.49932            36.27017            28.72014            28.50243            40.35211            38.39455            20.04560            18.42793            26.69773            20.57147            26.50702            32.20994            19.54438            21.07327            39.46918            22.93448            36.24921            28.91673            26.60620            28.98830            33.24888            40.19380            40.32575            23.77093            39.11784            34.25291            28.08143            34.30145            21.10975            38.45412            27.91769            33.05839            26.99197            40.75286            21.57153            33.31666            31.11209            17.55011            39.65298            35.39609            40.72125            23.35054            28.04341            39.90639            34.36527            28.23304            39.18326            30.09423            25.57782            32.79881            36.15223            36.37230            19.75154            32.90790            39.25680            34.77389            19.95959            21.23789            34.18831            33.03578            32.81981            29.03314            35.63794            31.91931            38.86684            25.12188            26.45429            34.40058            20.00959            39.62520            39.03421            39.19211            40.23804            38.07291            28.43846            34.16934            34.94991            19.55174            29.23586            41.36562            32.81539            40.27764            26.30530            26.63720            27.73315            36.45659            27.73488            23.66422            19.97740            43.82983            30.37549            33.18128            20.03496            27.70407            43.54173            38.63974            40.73085            21.57389            20.32366            37.85694            29.56940            27.05066            27.67599            34.19670            28.04179            43.43875            28.77608            34.00922            26.23804            36.94382            32.12651            28.31317            29.68437            41.45611            22.19787            35.87444            33.34172            36.21279            26.48229            27.75881            20.61309            31.78373            40.05101            26.47328            39.08942            17.81630            22.59674            17.51688            19.02611            38.33481            31.68229            42.14070            18.21537            38.84801            29.30149            31.06071            32.51174            38.64215            37.47974            18.21156            20.01589            30.14338            32.78062            19.47984            40.50117            20.49640            26.88978            22.32167            19.57072            22.47463            31.72237            25.80790            30.02332            26.43343            26.47906            34.87320            28.78520            37.63797            38.42704            32.85606            31.00728            29.06469            41.96932            31.17170            19.59927            28.64162            39.85605            26.76088            17.82361            18.48499            26.35478            27.96905            18.40144            24.98957            21.39840            18.36956            21.86761            32.44680            43.59621            27.94596            28.51306            32.79040            29.86731            31.76328            31.01051            28.34262            19.75009            19.60193            41.89914            33.43102            35.40906            27.82280            23.73392            40.92810            26.05453            41.84135            26.12401            24.87568            36.67828            30.91187            29.23471            25.87662            37.33091            40.70098            21.25975            30.66203            21.19139            26.21163            42.02040            24.52077            25.03213            33.74341            21.28368            22.62888            38.48093            38.77706            32.65563            21.15333            25.59456            38.69158            19.92250            27.68633            28.32416            33.08215            21.20186            38.28309            34.31491            44.03922            41.74858            41.32373            28.73834            39.90323            28.18170            34.64736            38.94156            40.80326            21.69753            38.52174            42.00523            22.89069            35.20922            40.81960            19.27402            26.35887            19.87694            41.09130            38.66747            28.42256            32.21914            36.62495            24.87143            38.61162            27.92243            33.14527            20.58740            38.36462            30.99004            42.14765            38.50721            32.53710            21.82703            34.15784            34.35028            33.42452            28.50862            27.72942            19.98943            31.49629            19.85465            36.98957            26.14919            36.38701            35.11355            19.56825            25.26129            21.62084            27.91304            32.01029            20.61855            31.23839            39.78151            38.53826            26.97643            38.43069            40.29839            41.76985            41.79099            24.75916            23.25243            26.88888            37.93920            25.44600            21.51390            22.47636            38.41247            37.48091            25.28779            40.67669            39.71012            28.77680            34.80476            34.97210            30.78373            34.22629            18.60310            38.50303            40.01897            24.82815            32.14095            35.87004            39.86749            27.17315            26.55927            17.65833            20.78707            19.73719            28.28175            20.41903            29.42580            35.59888            26.83927            26.35764            39.96628            19.54798            29.61260            20.23459            26.84909            19.03636            37.99802            20.96751            20.98371            29.06258            38.99405            33.31016            34.56450            21.12823            30.89346            18.80855            26.27993            30.62815            40.58926            17.34414            41.29501            27.93556            29.00460            23.96277            32.96641            19.99924            22.54916            27.20071            38.13960            33.05154            17.82422            35.81954            17.55200            20.82856            42.11975            31.50100            27.62583            29.12345            37.80904            33.98586            32.16534            20.60671            38.39812            40.46871            28.89949            19.31418            34.44040            35.61652            27.00838            22.12677            20.34947            29.73497            29.14569            33.51698            38.33852            20.88567            28.60651            35.20420            39.08109            17.60985            18.39569            39.42415            40.51748            18.97480            27.76123            25.51227            32.25418            37.76046            29.25866            38.92427            26.89999            27.08525            27.53390            41.99147            28.71957            32.05126            19.89151            35.34645            29.24729            40.55010            18.44910            20.32548            42.66833            39.04328            34.87236            21.52780            24.67890            21.34744            39.16237            37.55135            29.01990            17.67668            36.37226            28.31672            21.45353            20.99122            33.12432            22.91792            19.57746            21.39304            26.92089            30.35959            35.25301            31.73300            40.09651            24.46323            26.62692            38.73172            30.91235            26.63058            26.28538            19.81931            36.48145            38.30076            37.73789            23.24527            25.24767            39.32782            22.71492            29.18229            36.14190            30.45223            31.13277            21.26618            24.50144            33.91258            30.70625            39.91639            40.13919            18.29092            26.89010            40.66078            36.05768            37.85954            36.57781            34.42557            22.26855            24.40738            22.32514            26.99086            40.34844            43.53625            21.76411            25.00140            26.82075            37.86439            22.20216            31.79691            38.89466            20.08753            35.68172            20.93166            41.74418            32.62933            28.08409            18.81052            40.47969            17.75492            32.66907            35.49538            40.80750            30.86152            26.76065            26.84535            34.50152            27.19231            30.13601            31.98490            41.75507            24.03586            20.31566            29.81999            42.63102            24.89201            40.69717            24.53070            22.33526            41.36394            38.78134            20.97960            31.60924            31.42549            28.21569            20.25032            21.90185            17.38479            21.74344            27.03764            40.57181            36.67282            30.90144            30.32743            27.96962            38.50337            37.61730            34.86568            25.81089            27.13967            34.39558            37.96418            21.94841            40.75704            41.23158            33.64199            38.64368            23.35130            40.41422            26.50086            25.46287            36.90193            36.51155            25.95719            21.43324            31.21715            22.67968            25.83393            40.35236            25.05923            29.11668            30.55780            20.57276            41.33516            34.23168            20.78473            42.09953            37.73935            43.72874            26.51017            39.67978            40.26221            28.89628            41.68592            30.29964            33.73435            39.46425            40.27199            30.81234            18.12836            33.04675            29.12502            34.39466            41.86253            41.16178            37.06002            21.59372            41.97298            27.87446            34.22663            21.20686            40.18816            35.02592            21.26442            27.94239            42.83033            40.78905            23.16624            22.53852            30.22170            40.37477            40.47233            17.52381            29.92428            41.84822            41.68700            19.73269            25.58467            17.85285            26.58114            20.91519            19.99094            22.02400            31.57930            31.80028            35.04234            17.65425            23.33085            30.55122            26.81127            41.98280            20.45136            33.74716            18.64488            38.67650            25.95868            22.98562            38.08739            29.34787            39.12426            37.71829            17.41192            17.67309            35.49894            27.98013            28.69971            18.23561            34.55293            28.07221            27.78294            43.49297            17.64119            18.18259            39.33779            29.96994            42.16470            38.52341            19.03001            21.10310            40.62039            19.33362            28.84470            20.80899            28.61706            36.32196            28.02711            21.07006            26.62636            38.69555            38.49281            29.28138            19.10217            31.91529            20.56117            35.20142            42.06002            32.23916            22.66228            17.71879            27.62829            24.31144            25.10258            20.30829            22.33147            30.92548            22.27780            29.53181            43.34612            31.26665            38.42351            36.87945            41.90561            24.12986            22.31189            41.07475            40.18516            30.00189            29.28128            39.03305            40.58386            21.97665            23.73874            30.66375            29.26719            19.93521            29.37861            26.77489            19.79255            23.79104            25.52543            31.25372            17.30214            17.56099            18.82469            18.89166            21.69799            28.67049            32.06758            27.68028            41.11474            28.54300            29.05681            22.25825            33.05343            31.65367            19.42247            30.14087            32.07146            18.81335            34.32685            27.09711            27.96217            38.50394            18.27243            36.02319            25.55781            19.19282            23.04001            35.32259            19.70289            41.93742            30.43794            36.81787            34.16482            25.89630            29.72656            35.38645            39.15350            24.34987            36.71745            28.74364            35.24447            37.66269            23.98173            40.62998            26.92671            29.27715            28.47792            43.90294            41.03124            39.24214            36.98956            20.71220            40.68495            23.49438            38.74923            18.74775            41.47307            20.71205            28.81609            30.16420            21.20351            19.95035            24.45911            25.84226            33.75277            31.48006            32.08124            27.73459            36.51576            30.22918            28.24247            40.35404            39.25509            31.38096            40.12558            35.05569            26.92200            28.95571            38.91616            35.39694            21.76002            32.81412            19.05091            38.39021            22.67285            20.69413            39.06922            31.95271            26.06006            33.77026            25.51020            21.02697            24.42482            22.84728            39.15419            18.56734            30.72683            31.90113            17.61670            40.25766            34.60284            32.32493            37.18064            26.81626            34.33648            38.84539            39.74118            34.15662            25.74945            18.55700            25.96464            22.47016            41.74728            20.02763            39.21704            33.84839            23.03660            31.28530            41.40580            41.72346            28.45396            27.92129            40.18578            40.50532            20.06197            30.09252            42.98350            31.53848            19.99954            36.56811            25.86048            35.34034            29.51018            41.32564            41.24161            40.94505            35.05520            22.43186            27.30594            42.45988            37.71007            26.80882            22.70315            28.39824            29.90919            26.39508            26.50834            39.80784            37.59510            25.56277            23.12195            38.32199            40.44753            38.85455            22.20383            24.49940            30.84963            20.38777            21.45508            39.89236            41.10531            29.76497            36.36052            26.25345            41.26842            26.37340            38.90179            38.38144            25.06949            17.85929            23.52483            25.91577            17.91374            30.56469            33.67898            42.10533            27.14801            35.82591            20.07794            38.57264            21.71249            21.12310            39.11876            20.50640            42.14382            33.73555            21.80814            39.84254            27.18016            25.42508            21.13424            25.56485            29.73899            17.82825            27.74376            20.60797            28.38140            28.89730            17.83439            32.40593            28.70788            42.43436            17.38943            39.54089            21.16679            29.04312            33.26302            39.88784            32.42030            30.56832            27.13802            24.38340            28.79365            29.14459            37.30808            19.81336            29.99360            17.82159            30.12831            40.71837            29.39959            31.55895            37.81895            41.35527            22.33136            39.70085            37.96044            19.14654            40.47045            25.65294            33.46225            26.58629            28.27661            20.19094            30.12294            19.59680            43.60621            37.90178            38.51740            19.03478            41.79519            21.76099            29.21507            25.31412            42.69745            18.59966            23.22142            29.05191            39.58620            40.69860            17.77057            32.40449            18.33098            28.36355            35.60835            38.60242            20.81343            24.99215            35.68745            39.20639            19.55178            40.81147            26.54424            19.52947            39.42260            37.22929            38.45436            34.36075            26.40044            37.03419            38.89486            21.17462            26.83133            43.50241            39.61592            38.60525            33.94975            18.69291            39.56942            32.88922            28.30204            19.50242            29.00289            17.95005            39.77539            38.20079            28.10826            28.24294            24.24296            38.82943            24.67090            22.31820            23.87098            19.85167            37.51331            18.53744            19.55035            26.03033            27.43194            21.12251            41.69373            26.66320            20.08604            25.02528            26.35522  