# vtk DataFile Version 3.0
Output from R3t
ASCII
DATASET UNSTRUCTURED_GRID
POINTS       8652 double
      0.50000000E-01     -0.50000000E-02      0.48500000E+00
      0.10000000E+00     -0.50000000E-02      0.48500000E+00
      0.15000000E+00     -0.50000000E-02      0.48500000E+00
      0.20000000E+00     -0.50000000E-02      0.48500000E+00
      0.25000000E+00     -0.50000000E-02      0.48500000E+00
      0.30000000E+00     -0.50000000E-02      0.48500000E+00
      0.35000000E+00     -0.50000000E-02      0.48500000E+00
      0.40000000E+00     -0.50000000E-02      0.48500000E+00
      0.50000000E-01      0.00000000E+00      0.42500000E+00
      0.10000000E+00      0.00000000E+00      0.42500000E+00
      0.15000000E+00      0.00000000E+00      0.42500000E+00
      0.20000000E+00      0.00000000E+00      0.42500000E+00
      0.25000000E+00      0.00000000E+00      0.42500000E+00
      0.30000000E+00      0.00000000E+00      0.42500000E+00
      0.35000000E+00      0.00000000E+00      0.42500000E+00
      0.40000000E+00      0.00000000E+00      0.42500000E+00
      0.50000000E-01      0.00000000E+00      0.37500000E+00
      0.10000000E+00      0.00000000E+00      0.37500000E+00
      0.15000000E+00      0.00000000E+00      0.37500000E+00
      0.20000000E+00      0.00000000E+00      0.37500000E+00
      0.25000000E+00      0.00000000E+00      0.37500000E+00
      0.30000000E+00      0.00000000E+00      0.37500000E+00
      0.35000000E+00      0.00000000E+00      0.37500000E+00
      0.40000000E+00      0.00000000E+00      0.37500000E+00
      0.50000000E-01      0.00000000E+00      0.32500000E+00
      0.10000000E+00      0.00000000E+00      0.32500000E+00
      0.15000000E+00      0.00000000E+00      0.32500000E+00
      0.20000000E+00      0.00000000E+00      0.32500000E+00
      0.25000000E+00      0.00000000E+00      0.32500000E+00
      0.30000000E+00      0.00000000E+00      0.32500000E+00
      0.35000000E+00      0.00000000E+00      0.32500000E+00
      0.40000000E+00      0.00000000E+00      0.32500000E+00
      0.50000000E-01      0.00000000E+00      0.27500000E+00
      0.10000000E+00      0.00000000E+00      0.27500000E+00
      0.15000000E+00      0.00000000E+00      0.27500000E+00
      0.20000000E+00      0.00000000E+00      0.27500000E+00
      0.25000000E+00      0.00000000E+00      0.27500000E+00
      0.30000000E+00      0.00000000E+00      0.27500000E+00
      0.35000000E+00      0.00000000E+00      0.27500000E+00
      0.40000000E+00      0.00000000E+00      0.27500000E+00
      0.50000000E-01      0.00000000E+00      0.22500000E+00
      0.10000000E+00      0.00000000E+00      0.22500000E+00
      0.15000000E+00      0.00000000E+00      0.22500000E+00
      0.20000000E+00      0.00000000E+00      0.22500000E+00
      0.25000000E+00      0.00000000E+00      0.22500000E+00
      0.30000000E+00      0.00000000E+00      0.22500000E+00
      0.35000000E+00      0.00000000E+00      0.22500000E+00
      0.40000000E+00      0.00000000E+00      0.22500000E+00
      0.50000000E-01      0.00000000E+00      0.17500000E+00
      0.10000000E+00      0.00000000E+00      0.17500000E+00
      0.15000000E+00      0.00000000E+00      0.17500000E+00
      0.20000000E+00      0.00000000E+00      0.17500000E+00
      0.50000000E-01      0.00000000E+00      0.12500000E+00
      0.10000000E+00      0.00000000E+00      0.12500000E+00
      0.15000000E+00      0.00000000E+00      0.12500000E+00
      0.20000000E+00      0.00000000E+00      0.12500000E+00
      0.25000000E+00      0.00000000E+00      0.12500000E+00
      0.30000000E+00      0.00000000E+00      0.12500000E+00
      0.35000000E+00      0.00000000E+00      0.12500000E+00
      0.40000000E+00      0.00000000E+00      0.12500000E+00
      0.50000000E-01      0.00000000E+00      0.75000000E-01
      0.10000000E+00      0.00000000E+00      0.75000000E-01
      0.15000000E+00      0.00000000E+00      0.75000000E-01
      0.20000000E+00      0.00000000E+00      0.75000000E-01
      0.25000000E+00      0.00000000E+00      0.75000000E-01
      0.30000000E+00      0.00000000E+00      0.75000000E-01
      0.35000000E+00      0.00000000E+00      0.75000000E-01
      0.40000000E+00      0.00000000E+00      0.75000000E-01
      0.00000000E+00      0.00000000E+00      0.00000000E+00
      0.45000000E+00      0.00000000E+00      0.00000000E+00
      0.00000000E+00      0.00000000E+00      0.50000000E+00
      0.45000000E+00      0.00000000E+00      0.50000000E+00
      0.00000000E+00     -0.30000000E-01      0.00000000E+00
      0.45000000E+00     -0.30000000E-01      0.00000000E+00
      0.00000000E+00     -0.30000000E-01      0.50000000E+00
      0.45000000E+00     -0.30000000E-01      0.50000000E+00
      0.00000000E+00     -0.30000000E-01      0.10000000E-01
      0.00000000E+00     -0.30000000E-01      0.20000000E-01
      0.00000000E+00     -0.30000000E-01      0.30000000E-01
      0.00000000E+00     -0.30000000E-01      0.40000000E-01
      0.00000000E+00     -0.30000000E-01      0.50000000E-01
      0.00000000E+00     -0.30000000E-01      0.60000000E-01
      0.00000000E+00     -0.30000000E-01      0.70000000E-01
      0.00000000E+00     -0.30000000E-01      0.80000000E-01
      0.00000000E+00     -0.30000000E-01      0.90000000E-01
      0.00000000E+00     -0.30000000E-01      0.10000000E+00
      0.00000000E+00     -0.30000000E-01      0.11000000E+00
      0.00000000E+00     -0.30000000E-01      0.12000000E+00
      0.00000000E+00     -0.30000000E-01      0.13000000E+00
      0.00000000E+00     -0.30000000E-01      0.14000000E+00
      0.00000000E+00     -0.30000000E-01      0.15000000E+00
      0.00000000E+00     -0.30000000E-01      0.16000000E+00
      0.00000000E+00     -0.30000000E-01      0.17000000E+00
      0.00000000E+00     -0.30000000E-01      0.18000000E+00
      0.00000000E+00     -0.30000000E-01      0.19000000E+00
      0.00000000E+00     -0.30000000E-01      0.20000000E+00
      0.00000000E+00     -0.30000000E-01      0.21000000E+00
      0.00000000E+00     -0.30000000E-01      0.22000000E+00
      0.00000000E+00     -0.30000000E-01      0.23000000E+00
      0.00000000E+00     -0.30000000E-01      0.24000000E+00
      0.00000000E+00     -0.30000000E-01      0.25000000E+00
      0.00000000E+00     -0.30000000E-01      0.26000000E+00
      0.00000000E+00     -0.30000000E-01      0.27000000E+00
      0.00000000E+00     -0.30000000E-01      0.28000000E+00
      0.00000000E+00     -0.30000000E-01      0.29000000E+00
      0.00000000E+00     -0.30000000E-01      0.30000000E+00
      0.00000000E+00     -0.30000000E-01      0.31000000E+00
      0.00000000E+00     -0.30000000E-01      0.32000000E+00
      0.00000000E+00     -0.30000000E-01      0.33000000E+00
      0.00000000E+00     -0.30000000E-01      0.34000000E+00
      0.00000000E+00     -0.30000000E-01      0.35000000E+00
      0.00000000E+00     -0.30000000E-01      0.36000000E+00
      0.00000000E+00     -0.30000000E-01      0.37000000E+00
      0.00000000E+00     -0.30000000E-01      0.38000000E+00
      0.00000000E+00     -0.30000000E-01      0.39000000E+00
      0.00000000E+00     -0.30000000E-01      0.40000000E+00
      0.00000000E+00     -0.30000000E-01      0.41000000E+00
      0.00000000E+00     -0.30000000E-01      0.42000000E+00
      0.00000000E+00     -0.30000000E-01      0.43000000E+00
      0.00000000E+00     -0.30000000E-01      0.44000000E+00
      0.00000000E+00     -0.30000000E-01      0.45000000E+00
      0.00000000E+00     -0.30000000E-01      0.46000000E+00
      0.00000000E+00     -0.30000000E-01      0.47000000E+00
      0.00000000E+00     -0.30000000E-01      0.48000000E+00
      0.00000000E+00     -0.30000000E-01      0.49000000E+00
      0.10000000E-01     -0.30000000E-01      0.50000000E+00
      0.20000000E-01     -0.30000000E-01      0.50000000E+00
      0.30000000E-01     -0.30000000E-01      0.50000000E+00
      0.40000000E-01     -0.30000000E-01      0.50000000E+00
      0.50000000E-01     -0.30000000E-01      0.50000000E+00
      0.60000000E-01     -0.30000000E-01      0.50000000E+00
      0.70000000E-01     -0.30000000E-01      0.50000000E+00
      0.80000000E-01     -0.30000000E-01      0.50000000E+00
      0.90000000E-01     -0.30000000E-01      0.50000000E+00
      0.10000000E+00     -0.30000000E-01      0.50000000E+00
      0.11000000E+00     -0.30000000E-01      0.50000000E+00
      0.12000000E+00     -0.30000000E-01      0.50000000E+00
      0.13000000E+00     -0.30000000E-01      0.50000000E+00
      0.14000000E+00     -0.30000000E-01      0.50000000E+00
      0.15000000E+00     -0.30000000E-01      0.50000000E+00
      0.16000000E+00     -0.30000000E-01      0.50000000E+00
      0.17000000E+00     -0.30000000E-01      0.50000000E+00
      0.18000000E+00     -0.30000000E-01      0.50000000E+00
      0.19000000E+00     -0.30000000E-01      0.50000000E+00
      0.20000000E+00     -0.30000000E-01      0.50000000E+00
      0.21000000E+00     -0.30000000E-01      0.50000000E+00
      0.22000000E+00     -0.30000000E-01      0.50000000E+00
      0.23000000E+00     -0.30000000E-01      0.50000000E+00
      0.24000000E+00     -0.30000000E-01      0.50000000E+00
      0.25000000E+00     -0.30000000E-01      0.50000000E+00
      0.26000000E+00     -0.30000000E-01      0.50000000E+00
      0.27000000E+00     -0.30000000E-01      0.50000000E+00
      0.28000000E+00     -0.30000000E-01      0.50000000E+00
      0.29000000E+00     -0.30000000E-01      0.50000000E+00
      0.30000000E+00     -0.30000000E-01      0.50000000E+00
      0.31000000E+00     -0.30000000E-01      0.50000000E+00
      0.32000000E+00     -0.30000000E-01      0.50000000E+00
      0.33000000E+00     -0.30000000E-01      0.50000000E+00
      0.34000000E+00     -0.30000000E-01      0.50000000E+00
      0.35000000E+00     -0.30000000E-01      0.50000000E+00
      0.36000000E+00     -0.30000000E-01      0.50000000E+00
      0.37000000E+00     -0.30000000E-01      0.50000000E+00
[...]
POINT_DATA      8652
CELL_DATA     32557
SCALARS Resistivity(ohm.m) double 1
LOOKUP_TABLE default
            24.47540            16.12420            23.67300            18.41710            21.00680            28.80280            24.02890            24.69660            21.62970            28.83840            27.85680            33.25270            29.30100            20.18700            20.84020            21.82100            19.36920            22.76700            22.07270            27.50190            27.76940            20.72200            16.49820            28.93560            18.17950            22.20170            24.66940            20.68300            27.15150            17.19950            21.54560            19.49720            20.56860            24.38690            17.36660            21.56570            18.37560            24.47960            19.98770            24.09450            20.53060            27.61020            20.33190            19.42120            26.09970            24.12730            17.21670            20.98400            22.78990            24.87240            16.74840            24.11440            33.22250            19.39370            19.05860            21.13810            32.86230            28.78760            22.64020            18.68710            27.45360            16.49160            23.08160            19.78440            20.38890            18.91680            25.73320            24.59560            29.23410            26.77380            21.72700            19.40240            22.52900            33.52650            29.28730            19.58420            23.31560            21.64270            18.23510            15.62120            28.90940            18.22010            24.57110            20.81490            21.53380            19.79360            29.36210            29.30050            18.53300            33.36760            20.38380            32.86160            26.58940            22.04440            29.03570            31.09300            19.17510            19.64490            22.37140            27.90480            28.40820            21.31660            20.95470            18.76560            26.27020            17.12710            22.36950            19.01220            29.63970            17.11020            20.99060            28.23680            19.58010            28.19680            18.96030            20.62910            20.53220            27.20200            22.55980            19.30200            18.57190            22.45050            23.54120            27.77820            24.87770            19.74050            24.37830            28.43560            20.13340            21.07780            29.13360            19.14070            20.25050            24.57490            32.29460            20.71210            17.48350            29.01230            21.30910            24.04940            18.49060            30.63810            28.86430            20.19090            19.31720            21.41260            25.60650            15.82230            21.44000            15.23390            22.40740            18.15530            16.98010            21.69230            24.18650            19.80700            20.17920            27.57540            19.86020            22.41180            17.45620            19.70000            15.13080            29.44820            28.66680            19.73140            28.92210            20.02740            20.76090            21.41100            31.44500            27.81350            21.05800            25.02240            27.55470            21.47270            21.60020            21.77990            16.43490            17.81130            16.97470            23.18270            19.89310            25.95910            18.65530            29.19010            23.81660            16.26270            18.65650            26.82540            20.23400            14.41370            21.28140            19.46200            31.31060            29.13920            16.89360            29.18630            18.36220            20.61080            21.59940            29.03300            18.83240            27.29890            25.68570            19.03310            17.66070            26.83910            24.42760            18.64300            20.70820            21.82740            19.76610            24.57380            16.77690            19.85920            20.84350            18.98800            16.39260            20.64480            19.76750            27.53410            23.83290            20.28770            23.62550            20.28730            22.93030            19.61700            26.88230            19.40420            20.70260            19.74210            24.03380            20.98310            21.97510            19.55220            21.17850            16.97860            19.90070            20.46760            19.79000            27.51150            21.61180            21.92830            21.42960            31.54780            24.60380            21.06920            28.87850            21.88670            21.77020            23.74090            22.56720            16.74300            28.34620            19.26910            21.08760            17.21090            23.33930            27.24080            18.51760            23.45430            16.84360            21.24720            24.36680            22.10800            29.17540            15.10230            15.79650            24.73320            22.30880            18.39750            19.96320            27.63220            21.62740            20.69130            31.87570            26.59940            18.78990            19.34780            30.91850            19.76540            24.10630            19.84160            16.27850            26.71860            19.77260            22.37330            19.19490            20.03290            20.53500            22.79700            21.71290            25.51860            28.87940            27.97360            28.70520            24.15810            20.65070            21.04420            21.74640            22.51570            20.14860            17.95460            19.86720            22.00050            19.42500            20.78630            19.81180            33.34810            18.07770            19.24110            17.88130            24.23700            27.78790            16.31480            21.15770            23.77540            23.29300            25.43290            16.45310            20.25760            26.87510            21.41580            23.98900            28.87740            22.36270            19.58450            20.27880            24.20050            21.95350            21.81260            20.79030            26.58650            23.49960            19.67600            24.59980            20.59850            16.97110            32.96380            21.01390            28.15380            24.29970            29.24890            29.79670            21.07210            27.87950            20.57830            25.80250            22.02550            19.68720            26.06760            17.75010            20.99810            22.85090            26.93860            21.12100            16.74360            21.55780            17.13200            29.27500            19.28380            31.43070            19.37280            26.07190            26.49380            26.93940            26.42500            33.16090            22.76570            29.42170            19.47280            21.70190            29.12130            20.63060            21.53560            24.66220            23.41800            29.00460            19.91660            21.06650            24.41910            20.07360            16.47440            19.52930            20.92630            20.25500            29.07280            24.55470            20.79180            28.80000            33.54100            27.68300            22.76800            23.56900            20.43730            30.33170            29.16480            20.09320            24.34610            21.58190            20.68160            24.76280            27.79210            27.57760            19.22490            28.62920            20.41050            25.52620            18.14050            16.51140            21.28790            19.48290            24.45710            16.30770            23.11010            22.42610            22.85800            19.53600            19.76160            22.08250            18.97930            20.74960            27.52660            20.66170            23.58440            23.29190            19.56120            24.27690            28.82930            18.81230            27.06560            21.21530            26.48590            27.43850            25.26350            23.01940            32.23160            20.99400            26.75820            28.27720            23.37770            33.75000            25.54350            20.34820            21.69090            20.67870            19.61060            20.08310            31.65620            27.24170            26.10150            33.50650            24.95550            28.07460            20.74710            17.22770            29.24350            29.18080            19.63960            21.47740            21.84400            17.13420            32.49550            22.04690            24.31040            23.34860            20.96130            24.07150            27.97930            22.13350            24.15610            28.15220            21.54320            20.88430            19.25950            21.93670            16.36900            29.26240            24.24690            29.13470            18.86130            20.05440            16.45210            23.17840            20.99370            19.53360            19.31140            26.52540            20.14980            29.29060            23.30190            28.73420            21.09260            16.67780            20.98920            19.01860            26.67010            32.60580            22.83510            19.18540            22.20760            20.90220            24.00690            24.60180            25.14200            27.76350            26.05920            17.24760            29.17640            18.22000            33.12430            21.18220            27.34620            20.26700            26.74600            21.02730            29.13740            20.11060            19.23850            19.76620            21.84130            18.57380            28.19500            29.08550            17.30150            20.85640            24.49280            24.31560            30.31460            20.55010            28.06270            19.52280            25.07080            22.52360            19.38250            18.35030            21.82780            31.14280            28.19660            18.04030            18.19870            20.49060            24.26110            24.40330            20.51480            23.60380            15.63620            24.03600            19.46220            28.01060            18.54190            19.59460            27.58820            25.31760            19.73890            18.89330            28.59440            24.18200            20.47960            29.08950            20.55070            21.57700            19.13840            18.79620            19.94970            22.60700            21.63600            19.42000            19.50240            21.86400            24.10230            19.64030            20.94940            14.65580            24.61590            16.72390            19.69160            19.59580            21.43690            22.40560            23.18100            14.96260            18.37950            20.95060            28.83830            14.69510            22.69910            28.50770            20.24500            18.61120            20.39360            32.75350            18.81100            21.12480            24.37970            24.42630            24.01270            22.48740            24.23050            22.30540            19.44340            18.57380            21.66820            27.51130            21.07190            20.94040            23.98830            28.08360            21.24690            25.69300            18.41560            20.11610            24.62200            22.16450            23.22030            30.48080            19.48090            24.08140            20.80680            27.84520            20.84270            19.81850            24.47450            32.38860            22.84650            17.39320            28.12090            20.46100            24.38120            29.31860            22.52710            21.51910            19.99890            19.59020            23.53370            29.39680            22.77210            21.06510            29.47190            16.74930            19.61000            28.07820            23.91240            22.45410            16.43860            20.81160            28.89510            23.24880            21.95390            25.62350            19.75130            17.11440            28.76300            21.37970            21.39490            23.09760            28.50740            21.61290            24.07030            22.50190            20.52130            21.66430            28.86500            23.40030            24.42600            29.79480            27.71800            22.42570            21.38160            20.78470            19.20650            24.33450            23.29150            19.05210            14.52380            17.30790            28.77080            29.25910            26.85190            24.07100            29.52150            32.92910            23.23330            21.81040            19.48550            29.51010            20.28190            29.79560            27.54900            19.69560            29.67960            16.05940            26.94900            20.01000            28.60350            25.15360            24.61430            19.81890            27.59500            21.70420            27.40310            21.71700            24.17730            17.66360            27.96770            21.58380            21.32910            32.88670            21.78740            29.24480            16.13210            24.03770            30.16570            19.84160            18.77190            28.79200            24.62670            29.89290            20.00690            30.94190            19.77700            17.35450            17.23520            21.30760            20.81590            23.84490            28.73220            18.47890            29.44380            27.52800            25.71200            21.69740            27.86160            22.21400            19.73230            28.52850            19.71530            18.45140            20.07430            19.02310            23.97370            29.05090            21.41320            19.38990            19.76440            15.60500            28.32670            24.57280            15.72860            21.75400            21.62740            25.43610            24.74710            18.29040            19.66220            19.45510            18.82050            22.67920            17.33710            19.93970            28.73880            19.93710            27.09250            26.37530            24.20760            19.56170            15.71560            16.78500            24.09040            22.73790            20.30150            24.32520            31.88090            22.17210            20.75440            16.72700            23.36600            18.57800            24.69620            17.26700            20.12070            29.49350            28.00440            19.34480            24.02520            23.02070            23.00850            20.28720            24.57280            27.15120            23.72040            20.61930            22.34930            20.22780            22.26120            18.65560            35.28060            21.07360            20.83370            21.13060            23.64860            19.50030            16.93780            19.75330            17.92620            23.29510            19.25140            18.77330            17.99570            18.68060            20.41070            15.19710            20.70770            28.73980            22.61640            25.69380            20.32160            25.91360            18.51330            19.44840            16.44530            28.65490            18.56290            27.76750            22.80930            18.96410            19.80610            21.15970            21.24680            22.59410            20.69780            20.41480            20.45790            26.28680            21.65900            16.53300            22.89530            20.89720            21.14770            19.46150            22.35470            23.77800            21.70610            29.51990            19.30880            19.48970            29.28320            27.60600            23.43190            22.19250            28.30180            23.20780            27.82790            28.10250            29.28730            18.57190            16.07780            22.44790            20.10860            15.67180            24.67780            19.94410            20.17990            15.72090            22.80410            29.09410            19.31280            18.81490            20.62230            22.04710            20.81710            16.83040            29.26330            21.94120            28.70950            21.46280            20.76490            25.98250            21.63060            21.15390            27.52510            18.55580            28.46600            23.77160            23.93120            20.73350            29.41340            21.61340            20.17060            16.94480            19.37410            22.55650            19.12330            20.54260            27.34970            24.44220            19.91030            19.86450            19.26270            21.62710            24.98490            20.79070            24.75840            25.69700            19.70650            28.10690            29.00320            28.24010            24.26280            15.78420            21.62690            20.30350            21.37300            24.59370            23.15470            15.45450            27.53570            17.66370            21.67770            20.50120            20.67730            18.42400            29.26590            21.26690            25.90710            23.57160            26.19770            31.90830            19.23950            28.54550            28.42670            20.61400            22.68120            25.67240            23.94260            20.07990            28.15370            21.42570            27.40850            32.54360            25.86360            28.10120            29.30190            18.52540            16.42780            34.04870            19.63830            21.40250            26.84750            29.04390            14.61840            27.76520            19.38880            21.97790            17.20300            23.26730            21.52720            19.49430            27.70870            24.02100            15.90640            28.46350            19.48610            20.48580            21.19640            24.39440            20.93810            18.92560            24.07450            19.72830            22.04850            24.39510            23.61160            19.55400            22.30910            17.07960            15.05010            28.87990            25.91420            29.20780            19.45610            19.36980            20.93520            23.65870            27.92870            24.08030            19.37090            29.51190            23.15020            29.39590            23.02450            18.74410            27.76230            23.97240  