# vtk DataFile Version 3.0
Output from R3t
ASCII
DATASET UNSTRUCTURED_GRID
POINTS       8652 double
      0.50000000E-01     -0.50000000E-02      0.48500000E+00
      0.10000000E+00     -0.50000000E-02      0.48500000E+00
      0.15000000E+00     -0.50000000E-02      0.48500000E+00
      0.20000000E+00     -0.50000000E-02      0.48500000E+00
      0.25000000E+00     -0.50000000E-02      0.48500000E+00
      0.30000000E+00     -0.50000000E-02      0.48500000E+00
      0.35000000E+00     -0.50000000E-02      0.48500000E+00
      0.40000000E+00     -0.50000000E-02      0.48500000E+00
      0.50000000E-01      0.00000000E+00      0.42500000E+00
      0.10000000E+00      0.00000000E+00      0.42500000E+00
      0.15000000E+00      0.00000000E+00      0.42500000E+00
      0.20000000E+00      0.00000000E+00      0.42500000E+00
      0.25000000E+00      0.00000000E+00      0.42500000E+00
      0.30000000E+00      0.00000000E+00      0.42500000E+00
      0.35000000E+00      0.00000000E+00      0.42500000E+00
      0.40000000E+00      0.00000000E+00      0.42500000E+00
      0.50000000E-01      0.00000000E+00      0.37500000E+00
      0.10000000E+00      0.00000000E+00      0.37500000E+00
      0.15000000E+00      0.00000000E+00      0.37500000E+00
      0.20000000E+00      0.00000000E+00      0.37500000E+00
      0.25000000E+00      0.00000000E+00      0.37500000E+00
      0.30000000E+00      0.00000000E+00      0.37500000E+00
      0.35000000E+00      0.00000000E+00      0.37500000E+00
      0.40000000E+00      0.00000000E+00      0.37500000E+00
      0.50000000E-01      0.00000000E+00      0.32500000E+00
      0.10000000E+00      0.00000000E+00      0.32500000E+00
      0.15000000E+00      0.00000000E+00      0.32500000E+00
      0.20000000E+00      0.00000000E+00      0.32500000E+00
      0.25000000E+00      0.00000000E+00      0.32500000E+00
      0.30000000E+00      0.00000000E+00      0.32500000E+00
      0.35000000E+00      0.00000000E+00      0.32500000E+00
      0.40000000E+00      0.00000000E+00      0.32500000E+00
      0.50000000E-01      0.00000000E+00      0.27500000E+00
      0.10000000E+00      0.00000000E+00      0.27500000E+00
      0.15000000E+00      0.00000000E+00      0.27500000E+00
      0.20000000E+00      0.00000000E+00      0.27500000E+00
      0.25000000E+00      0.00000000E+00      0.27500000E+00
      0.30000000E+00      0.00000000E+00      0.27500000E+00
      0.35000000E+00      0.00000000E+00      0.27500000E+00
      0.40000000E+00      0.00000000E+00      0.27500000E+00
      0.50000000E-01      0.00000000E+00      0.22500000E+00
      0.10000000E+00      0.00000000E+00      0.22500000E+00
      0.15000000E+00      0.00000000E+00      0.22500000E+00
      0.20000000E+00      0.00000000E+00      0.22500000E+00
      0.25000000E+00      0.00000000E+00      0.22500000E+00
      0.30000000E+00      0.00000000E+00      0.22500000E+00
      0.35000000E+00      0.00000000E+00      0.22500000E+00
      0.40000000E+00      0.00000000E+00      0.22500000E+00
      0.50000000E-01      0.00000000E+00      0.17500000E+00
      0.10000000E+00      0.00000000E+00      0.17500000E+00
      0.15000000E+00      0.00000000E+00      0.17500000E+00
      0.20000000E+00      0.00000000E+00      0.17500000E+00
      0.50000000E-01      0.00000000E+00      0.12500000E+00
      0.10000000E+00      0.00000000E+00      0.12500000E+00
      0.15000000E+00      0.00000000E+00      0.12500000E+00
      0.20000000E+00      0.00000000E+00      0.12500000E+00
      0.25000000E+00      0.00000000E+00      0.12500000E+00
      0.30000000E+00      0.00000000E+00      0.12500000E+00
      0.35000000E+00      0.00000000E+00      0.12500000E+00
      0.40000000E+00      0.00000000E+00      0.12500000E+00
      0.50000000E-01      0.00000000E+00      0.75000000E-01
      0.10000000E+00      0.00000000E+00      0.75000000E-01
      0.15000000E+00      0.00000000E+00      0.75000000E-01
      0.20000000E+00      0.00000000E+00      0.75000000E-01
      0.25000000E+00      0.00000000E+00      0.75000000E-01
      0.30000000E+00      0.00000000E+00      0.75000000E-01
      0.35000000E+00      0.00000000E+00      0.75000000E-01
      0.40000000E+00      0.00000000E+00      0.75000000E-01
      0.00000000E+00      0.00000000E+00      0.00000000E+00
      0.45000000E+00      0.00000000E+00      0.00000000E+00
      0.00000000E+00      0.00000000E+00      0.50000000E+00
      0.45000000E+00      0.00000000E+00      0.50000000E+00
      0.00000000E+00     -0.30000000E-01      0.00000000E+00
      0.45000000E+00     -0.30000000E-01      0.00000000E+00
      0.00000000E+00     -0.30000000E-01      0.50000000E+00
      0.45000000E+00     -0.30000000E-01      0.50000000E+00
      0.00000000E+00     -0.30000000E-01      0.10000000E-01
      0.00000000E+00     -0.30000000E-01      0.20000000E-01
      0.00000000E+00     -0.30000000E-01      0.30000000E-01
      0.00000000E+00     -0.30000000E-01      0.40000000E-01
      0.00000000E+00     -0.30000000E-01      0.50000000E-01
      0.00000000E+00     -0.30000000E-01      0.60000000E-01
      0.00000000E+00     -0.30000000E-01      0.70000000E-01
      0.00000000E+00     -0.30000000E-01      0.80000000E-01
      0.00000000E+00     -0.30000000E-01      0.90000000E-01
      0.00000000E+00     -0.30000000E-01      0.10000000E+00
      0.00000000E+00     -0.30000000E-01      0.11000000E+00
      0.00000000E+00     -0.30000000E-01      0.12000000E+00
      0.00000000E+00     -0.30000000E-01      0.13000000E+00
      0.00000000E+00     -0.30000000E-01      0.14000000E+00
      0.00000000E+00     -0.30000000E-01      0.15000000E+00
      0.00000000E+00     -0.30000000E-01      0.16000000E+00
      0.00000000E+00     -0.30000000E-01      0.17000000E+00
      0.00000000E+00     -0.30000000E-01      0.18000000E+00
      0.00000000E+00     -0.30000000E-01      0.19000000E+00
      0.00000000E+00     -0.30000000E-01      0.20000000E+00
      0.00000000E+00     -0.30000000E-01      0.21000000E+00
      0.00000000E+00     -0.30000000E-01      0.22000000E+00
      0.00000000E+00     -0.30000000E-01      0.23000000E+00
      0.00000000E+00     -0.30000000E-01      0.24000000E+00
      0.00000000E+00     -0.30000000E-01      0.25000000E+00
      0.00000000E+00     -0.30000000E-01      0.26000000E+00
      0.00000000E+00     -0.30000000E-01      0.27000000E+00
      0.00000000E+00     -0.30000000E-01      0.28000000E+00
      0.00000000E+00     -0.30000000E-01      0.29000000E+00
      0.00000000E+00     -0.30000000E-01      0.30000000E+00
      0.00000000E+00     -0.30000000E-01      0.31000000E+00
      0.00000000E+00     -0.30000000E-01      0.32000000E+00
      0.00000000E+00     -0.30000000E-01      0.33000000E+00
      0.00000000E+00     -0.30000000E-01      0.34000000E+00
      0.00000000E+00     -0.30000000E-01      0.35000000E+00
      0.00000000E+00     -0.30000000E-01      0.36000000E+00
      0.00000000E+00     -0.30000000E-01      0.37000000E+00
      0.00000000E+00     -0.30000000E-01      0.38000000E+00
      0.00000000E+00     -0.30000000E-01      0.39000000E+00
      0.00000000E+00     -0.30000000E-01      0.40000000E+00
      0.00000000E+00     -0.30000000E-01      0.41000000E+00
      0.00000000E+00     -0.30000000E-01      0.42000000E+00
      0.00000000E+00     -0.30000000E-01      0.43000000E+00
      0.00000000E+00     -0.30000000E-01      0.44000000E+00
      0.00000000E+00     -0.30000000E-01      0.45000000E+00
      0.00000000E+00     -0.30000000E-01      0.46000000E+00
      0.00000000E+00     -0.30000000E-01      0.47000000E+00
      0.00000000E+00     -0.30000000E-01      0.48000000E+00
      0.00000000E+00     -0.30000000E-01      0.49000000E+00
      0.10000000E-01     -0.30000000E-01      0.50000000E+00
      0.20000000E-01     -0.30000000E-01      0.50000000E+00
      0.30000000E-01     -0.30000000E-01      0.50000000E+00
      0.40000000E-01     -0.30000000E-01      0.50000000E+00
      0.50000000E-01     -0.30000000E-01      0.50000000E+00
      0.60000000E-01     -0.30000000E-01      0.50000000E+00
      0.70000000E-01     -0.30000000E-01      0.50000000E+00
      0.80000000E-01     -0.30000000E-01      0.50000000E+00
      0.90000000E-01     -0.30000000E-01      0.50000000E+00
      0.10000000E+00     -0.30000000E-01      0.50000000E+00
      0.11000000E+00     -0.30000000E-01      0.50000000E+00
      0.12000000E+00     -0.30000000E-01      0.50000000E+00
      0.13000000E+00     -0.30000000E-01      0.50000000E+00
      0.14000000E+00     -0.30000000E-01      0.50000000E+00
      0.15000000E+00     -0.30000000E-01      0.50000000E+00
      0.16000000E+00     -0.30000000E-01      0.50000000E+00
      0.17000000E+00     -0.30000000E-01      0.50000000E+00
      0.18000000E+00     -0.30000000E-01      0.50000000E+00
      0.19000000E+00     -0.30000000E-01      0.50000000E+00
      0.20000000E+00     -0.30000000E-01      0.50000000E+00
      0.21000000E+00     -0.30000000E-01      0.50000000E+00
      0.22000000E+00     -0.30000000E-01      0.50000000E+00
      0.23000000E+00     -0.30000000E-01      0.50000000E+00
      0.24000000E+00     -0.30000000E-01      0.50000000E+00
      0.25000000E+00     -0.30000000E-01      0.50000000E+00
      0.26000000E+00     -0.30000000E-01      0.50000000E+00
      0.27000000E+00     -0.30000000E-01      0.50000000E+00
      0.28000000E+00     -0.30000000E-01      0.50000000E+00
      0.29000000E+00     -0.30000000E-01      0.50000000E+00
      0.30000000E+00     -0.30000000E-01      0.50000000E+00
      0.31000000E+00     -0.30000000E-01      0.50000000E+00
      0.32000000E+00     -0.30000000E-01      0.50000000E+00
      0.33000000E+00     -0.30000000E-01      0.50000000E+00
      0.34000000E+00     -0.30000000E-01      0.50000000E+00
      0.35000000E+00     -0.30000000E-01      0.50000000E+00
      0.36000000E+00     -0.30000000E-01      0.50000000E+00
      0.37000000E+00     -0.30000000E-01      0.50000000E+00
[...]
POINT_DATA      8652
CELL_DATA     32557
SCALARS Resistivity(ohm.m) double 1
LOOKUP_TABLE default
            24.38512            30.45125            22.94385            40.31060            28.52772            33.26639            43.47632            34.54485            38.18929            42.04282            40.34697            37.50045            36.31311            31.67308            19.96131            21.75522            22.95401            58.84463            31.19699            42.01079            35.13191            26.18805            20.86719            40.74598            24.53524            22.11399            33.28964            41.44943            44.24437            23.08267            38.79318            35.60328            25.47146            32.23451            36.98759            32.69918            22.86249            54.39561            20.23300            35.70571            26.09194            41.89060            37.65818            27.60828            40.70000            38.23300            39.24379            34.22926            24.77852            48.32503            21.30270            55.75807            41.18736            35.99389            41.67320            31.39689            40.99835            42.32569            59.75701            21.84956            50.64525            23.46861            22.19096            25.33099            56.04795            36.42846            45.54573            37.56651            34.15968            38.65345            31.12167            23.13985            24.62684            36.24198            39.56116            24.81463            43.63847            36.28186            23.20126            18.00833            34.69206            36.70096            31.79687            35.87985            38.33441            26.03755            38.87100            39.56677            35.73081            38.82742            25.67353            37.17425            42.44356            34.17153            32.51454            35.56002            63.54822            39.06174            26.09711            41.70873            40.90308            20.20664            43.90064            38.19171            38.51396            40.16574            23.24770            27.29069            36.17191            22.34681            55.67251            31.25834            41.17172            31.01527            41.79572            35.82723            25.93587            43.40191            26.96904            39.05280            40.62266            23.52655            40.94301            41.39608            38.02297            45.19540            40.41609            32.68612            27.45059            23.99180            31.87544            31.29165            34.89017            40.04510            38.95614            28.78602            38.18526            37.12491            35.65062            24.24382            39.39797            38.28505            35.13425            33.75873            37.88863            54.82313            36.17794            18.33153            34.50620            18.73509            25.54805            22.89261            24.47300            39.07159            35.50848            23.34563            28.74943            41.45044            36.38538            60.23035            20.36863            41.88148            17.06645            39.09293            35.97087            24.23763            42.02341            26.77078            26.15494            25.65601            35.64741            42.01052            33.68415            24.31029            41.39724            28.93095            29.35579            34.04932            34.09947            33.87768            38.46837            38.81304            36.70372            46.86668            50.07857            40.10727            24.33453            32.00126            40.76707            32.06719            26.93007            18.64732            25.66842            35.40207            32.05424            41.82088            34.46473            37.75198            42.26594            37.72165            23.87343            42.00992            39.31375            30.19517            24.48047            40.48769            36.19480            39.29518            31.42562            35.70014            36.00810            26.06980            41.41816            31.61759            35.25860            38.95163            22.42676            45.49334            32.41243            28.37511            36.21353            41.33936            31.32795            50.59991            24.84835            24.95107            59.11535            41.11227            32.82407            39.60630            46.78023            35.46278            22.59636            22.56809            21.13448            34.95619            42.86238            43.78129            36.92695            24.28093            37.80943            41.89457            34.32577            24.88288            22.92400            33.91552            34.91695            43.77820            34.99325            23.42228            31.77938            24.53413            22.70058            23.56732            39.18463            42.58612            44.21070            24.20460            49.43014            32.29979            22.32412            36.04998            19.61620            27.76399            43.33668            26.35261            32.92022            16.99334            18.99266            34.16920            22.20729            22.04933            20.13200            41.57688            22.52565            25.17146            42.87351            24.80835            38.28580            24.56782            34.39668            41.02250            29.41335            38.89607            23.18732            29.36760            24.94472            22.84718            38.51595            38.84933            44.60496            28.51078            35.05605            34.25452            32.18476            40.24033            41.61230            28.90369            29.14583            28.43157            36.86765            25.69699            53.75653            34.75718            23.38110            21.28863            22.60668            19.20201            36.36087            43.82360            22.82046            62.56996            20.94528            35.57376            38.95850            33.40013            25.51856            42.16554            47.98366            45.01743            34.36009            45.11435            39.58983            24.04043            37.53766            31.32519            33.86055            28.97773            22.86773            39.36947            21.25497            37.95573            23.75622            28.88834            58.10914            36.70947            24.12289            30.30141            36.49168            36.84365            22.58662            31.50728            43.37677            37.96713            41.22762            40.91736            51.22402            26.81110            47.26514            34.25246            33.32319            43.28445            41.35186            24.34316            35.22374            41.97016            27.39064            35.02074            22.29350            22.72797            40.75785            41.31680            56.48699            36.67845            37.57829            47.87117            33.09291            42.36060            39.46392            27.86355            38.74837            35.50947            34.96829            32.19934            32.47618            29.44744            33.12450            28.45150            34.74506            28.57332            24.30241            37.64279            51.89834            21.20425            34.64411            21.66736            29.56037            29.44582            37.46024            42.88095            35.28849            42.48089            40.04734            44.18942            28.77537            24.86562            42.57694            37.69092            28.35284            33.74372            22.21729            21.73146            34.78120            32.02751            41.29979            63.16461            42.05362            39.11261            37.44044            40.32963            37.75921            24.23461            35.98165            32.39338            21.16653            24.90613            25.82829            33.55219            34.65918            44.33418            25.20777            54.81046            35.36945            41.20677            45.27771            40.94763            29.72140            27.99243            35.38184            36.45072            35.58891            40.82709            36.14695            28.32918            32.33658            37.89603            48.83222            38.51774            29.04066            32.14761            31.53015            22.19792            43.06425            47.60908            37.45005            38.77215            25.40876            37.07297            34.07659            42.73831            48.97140            44.30950            43.57023            38.62619            35.04602            20.79666            39.58571            39.62894            39.99669            22.63076            38.87437            29.77806            36.94837            40.17294            37.21162            40.12768            40.96347            38.16478            32.15014            41.49966            25.42382            36.28261            31.58429            26.53873            21.62905            41.00947            30.34466            24.30651            39.79233            35.48652            38.92629            39.57202            35.48411            23.81454            21.95221            26.84884            38.27744            35.63698            28.87012            29.38098            40.27699            35.25634            35.07041            44.07559            22.35683            36.05003            31.07738            39.57826            37.14859            36.68780            31.33105            22.62698            55.26870            36.97874            35.66674            33.53677            44.21314            36.71994            39.92071            37.71867            33.58344            37.07693            28.04692            34.59250            39.69715            32.08349            27.25527            33.34989            37.30572            22.25210            34.49261            19.95052            35.95422            38.24201            38.99200            40.62011            21.61014            45.21393            35.44832            42.38376            36.39292            39.16682            36.38218            33.00504            35.79919            36.65092            41.95815            29.70147            43.91357            42.39589            31.53068            39.64018            31.93587            33.70455            35.53417            32.73349            24.33920            17.36358            37.30507            35.38030            39.24754            39.34007            37.87739            34.13265            23.78988            21.03377            27.57805            39.65474            25.03760            23.34567            37.64596            23.44817            33.19455            41.45149            28.53442            53.09194            22.70719            29.26354            21.10571            40.76910            27.10359            37.97164            33.24299            20.03954            18.23639            33.22700            23.08489            35.11773            35.85050            38.09846            25.68392            35.45656            18.35883            29.48670            21.65620            41.04754            17.87772            35.70117            38.47730            37.08818            42.89700            30.41419            36.77045            39.47348            26.87037            32.15172            32.09903            37.12067            24.29639            32.13598            22.02517            35.99516            39.56285            20.51875            41.27467            33.36883            31.41698            37.93852            40.10440            24.24439            45.96676            22.77188            27.20384            33.24370            39.91007            36.13403            40.34606            34.35113            37.81542            32.43018            41.29479            38.49257            24.26584            32.54506            38.27026            27.13047            39.72195            30.85674            32.34229            44.24691            39.24702            49.57551            39.59246            39.95059            46.28342            29.81966            38.47614            34.73857            36.00994            28.95956            35.22166            38.77728            42.50082            23.80468            29.22757            20.41831            22.37428            33.90684            35.89256            36.94120            47.42151            39.20718            19.92280            42.05998            29.24257            37.23145            28.90682            35.42891            29.45922            37.65851            24.04905            22.09301            30.84804            42.29014            29.27086            33.39113            40.84403            44.21706            26.45662            37.98637            36.21530            22.92691            40.14055            58.08879            40.80902            18.06028            22.72347            36.38539            39.73666            32.68265            39.80905            42.46183            34.94406            40.29666            29.56015            30.13764            37.87860            25.74761            40.57487            44.40031            36.82272            41.53014            30.21568            33.16256            34.37314            41.27436            32.99527            33.18588            37.04197            40.32655            35.42404            41.55764            54.73494            29.01227            33.18442            31.41968            23.80001            30.20471            34.83082            23.15413            37.86014            23.30603            23.64870            40.95691            41.15460            38.85615            36.48188            33.29389            41.88282            29.32423            33.34252            20.19909            39.91882            39.53497            23.03733            24.73025            36.63770            39.04600            39.17137            40.82065            32.82122            46.68243            21.67576            42.05820            24.88726            45.00719            35.84991            35.11268            38.49419            46.67198            35.92405            32.09983            34.68593            35.36336            23.81292            39.00298            19.48237            38.77425            31.98417            17.32305            36.54538            30.67287            24.14795            34.39976            38.23058            22.69953            35.71294            39.13534            27.12996            23.40635            29.16363            43.36599            45.43515            49.74506            48.51555            44.57951            43.90012            19.12001            31.09309            36.26433            27.92708            35.04083            35.21171            42.10089            32.45885            46.41013            30.57182            29.92106            44.65431            31.96460            22.86738            38.43879            38.36946            41.43345            38.33358            34.31619            22.19754            58.89585            34.83135            41.42479            41.49558            32.15879            40.60772            39.70370            34.75292            25.26165            49.69677            37.22134            35.60009            40.15198            22.12872            48.80259            35.04087            41.26997            24.12388            40.71196            30.09496            24.56610            29.74612            22.54369            40.52021            34.99154            16.67541            20.64741            36.38524            27.56213            37.78724            31.79205            38.75362            42.54660            22.80450            23.91059            35.58522            44.24892            33.86969            33.37265            21.00277            34.40052            24.69473            27.68055            24.85309            19.98621            23.85952            25.08330            39.58833            23.75930            34.93054            33.70875            56.44029            40.49228            35.85263            22.75575            49.44107            35.09556            42.45400            22.05334            27.54630            42.02601            31.44189            22.84473            36.79659            37.80105            58.44997            43.96792            37.40491            39.88706            32.93100            30.36174            26.66007            27.72551            18.44362            50.68788            32.01609            34.75497            17.36894            24.59039            40.48189            38.33594            40.25884            56.67323            38.91053            20.84145            20.81781            41.81565            26.29007            32.23149            32.04441            46.81914            40.33714            22.38336            20.60871            41.34163            44.19390            38.07115            31.70723            36.43665            25.54000            41.99647            34.21393            42.08361            23.94818            42.59840            22.83030            27.74337            26.75809            31.84581            41.09713            24.30589            35.17828            40.10703            35.99359            43.78883            23.04973            33.87542            47.21870            44.72649            34.34932            42.89402            42.22571            35.49770            17.04747            21.95205            31.25422            35.74335            35.46545            22.63089            17.07838            41.33329            35.05875            20.68398            22.08579            28.93644            21.09497            42.20614            23.24341            45.10985            25.08664            49.23569            36.39253            41.09835            35.75024            32.68944            21.21969            23.16408            28.31011            43.24624            31.42783            37.42596            22.95711            40.64732            41.68518            40.62227            42.39344            39.61436            39.79970            19.95498            37.78177            41.73573            37.49279            31.84031            33.76438            20.68578            41.84712            36.53019            23.25726            36.75130            58.28181            36.53702            35.70078            31.72396            37.82519            23.61481            37.46988            40.39611            51.50053            27.78757            36.45973            24.34433            39.53851            45.90642            36.36627            28.23989            33.86500            48.92902            35.56987            59.85742            19.69428            19.85776            35.74913            46.61221            37.76323            35.89176            36.74649            21.43932            23.07223            36.80491            37.76270            36.80923            40.51379            26.20293            42.13822            33.63895            37.11213            40.70865            24.22717  