# vtk DataFile Version 3.0
Output from R3t
ASCII
DATASET UNSTRUCTURED_GRID
POINTS       9925 double
      0.60000000E-01      0.00000000E+00      0.48700000E+00
      0.11000000E+00      0.00000000E+00      0.48700000E+00
      0.16000000E+00      0.00000000E+00      0.48700000E+00
      0.21000000E+00      0.00000000E+00      0.48700000E+00
      0.26000000E+00      0.00000000E+00      0.48700000E+00
      0.31000000E+00      0.00000000E+00      0.48700000E+00
      0.36000000E+00      0.00000000E+00      0.48700000E+00
      0.41000000E+00      0.00000000E+00      0.48700000E+00
      0.60000000E-01      0.00000000E+00      0.43500000E+00
      0.11000000E+00      0.00000000E+00      0.43500000E+00
      0.16000000E+00      0.00000000E+00      0.43500000E+00
      0.21000000E+00      0.00000000E+00      0.43500000E+00
      0.26000000E+00      0.00000000E+00      0.43500000E+00
      0.31000000E+00      0.00000000E+00      0.43500000E+00
      0.36000000E+00      0.00000000E+00      0.43500000E+00
      0.41000000E+00      0.00000000E+00      0.43500000E+00
      0.60000000E-01      0.00000000E+00      0.38500000E+00
      0.11000000E+00      0.00000000E+00      0.38500000E+00
      0.16000000E+00      0.00000000E+00      0.38500000E+00
      0.21000000E+00      0.00000000E+00      0.38500000E+00
      0.26000000E+00      0.00000000E+00      0.38500000E+00
      0.31000000E+00      0.00000000E+00      0.38500000E+00
      0.36000000E+00      0.00000000E+00      0.38500000E+00
      0.41000000E+00      0.00000000E+00      0.38500000E+00
      0.60000000E-01      0.00000000E+00      0.33500000E+00
      0.11000000E+00      0.00000000E+00      0.33500000E+00
      0.16000000E+00      0.00000000E+00      0.33500000E+00
      0.21000000E+00      0.00000000E+00      0.33500000E+00
      0.26000000E+00      0.00000000E+00      0.33500000E+00
      0.31000000E+00      0.00000000E+00      0.33500000E+00
      0.36000000E+00      0.00000000E+00      0.33500000E+00
      0.41000000E+00      0.00000000E+00      0.33500000E+00
      0.60000000E-01      0.00000000E+00      0.28500000E+00
      0.11000000E+00      0.00000000E+00      0.28500000E+00
      0.16000000E+00      0.00000000E+00      0.28500000E+00
      0.21000000E+00      0.00000000E+00      0.28500000E+00
      0.26000000E+00      0.00000000E+00      0.28500000E+00
      0.31000000E+00      0.00000000E+00      0.28500000E+00
      0.36000000E+00      0.00000000E+00      0.28500000E+00
      0.41000000E+00      0.00000000E+00      0.28500000E+00
      0.60000000E-01      0.00000000E+00      0.23500000E+00
      0.11000000E+00      0.00000000E+00      0.23500000E+00
      0.16000000E+00      0.00000000E+00      0.23500000E+00
      0.21000000E+00      0.00000000E+00      0.23500000E+00
      0.26000000E+00      0.00000000E+00      0.23500000E+00
      0.31000000E+00      0.00000000E+00      0.23500000E+00
      0.36000000E+00      0.00000000E+00      0.23500000E+00
      0.41000000E+00      0.00000000E+00      0.23500000E+00
      0.60000000E-01      0.00000000E+00      0.18500000E+00
      0.11000000E+00      0.00000000E+00      0.18500000E+00
      0.16000000E+00      0.00000000E+00      0.18500000E+00
      0.21000000E+00      0.00000000E+00      0.18500000E+00
      0.26000000E+00      0.00000000E+00      0.18500000E+00
      0.31000000E+00      0.00000000E+00      0.18500000E+00
      0.36000000E+00      0.00000000E+00      0.18500000E+00
      0.41000000E+00      0.00000000E+00      0.18500000E+00
      0.60000000E-01      0.00000000E+00      0.13500000E+00
      0.11000000E+00      0.00000000E+00      0.13500000E+00
      0.16000000E+00      0.00000000E+00      0.13500000E+00
      0.21000000E+00      0.00000000E+00      0.13500000E+00
      0.26000000E+00      0.00000000E+00      0.13500000E+00
      0.31000000E+00      0.00000000E+00      0.13500000E+00
      0.36000000E+00      0.00000000E+00      0.13500000E+00
      0.41000000E+00      0.00000000E+00      0.13500000E+00
      0.60000000E-01      0.00000000E+00      0.85000000E-01
      0.11000000E+00      0.00000000E+00      0.85000000E-01
      0.16000000E+00      0.00000000E+00      0.85000000E-01
      0.21000000E+00      0.00000000E+00      0.85000000E-01
      0.26000000E+00      0.00000000E+00      0.85000000E-01
      0.31000000E+00      0.00000000E+00      0.85000000E-01
      0.36000000E+00      0.00000000E+00      0.85000000E-01
      0.41000000E+00      0.00000000E+00      0.85000000E-01
      0.00000000E+00      0.00000000E+00      0.00000000E+00
      0.47000000E+00      0.00000000E+00      0.00000000E+00
      0.00000000E+00      0.00000000E+00      0.50000000E+00
      0.47000000E+00      0.00000000E+00      0.50000000E+00
      0.00000000E+00     -0.30000000E-01      0.00000000E+00
      0.47000000E+00     -0.30000000E-01      0.00000000E+00
      0.00000000E+00     -0.30000000E-01      0.50000000E+00
      0.47000000E+00     -0.30000000E-01      0.50000000E+00
      0.87687900E-02      0.00000000E+00      0.87627500E-02
      0.65643790E-01      0.00000000E+00      0.87627500E-02
      0.12251879E+00      0.00000000E+00      0.87627500E-02
      0.17939379E+00      0.00000000E+00      0.87627500E-02
      0.23626879E+00      0.00000000E+00      0.87627500E-02
      0.29314379E+00      0.00000000E+00      0.87627500E-02
      0.35001879E+00      0.00000000E+00      0.87627500E-02
      0.40689379E+00      0.00000000E+00      0.87627500E-02
      0.46376879E+00      0.00000000E+00      0.87627500E-02
      0.87687900E-02      0.00000000E+00      0.67637750E-01
      0.65643790E-01      0.00000000E+00      0.67637750E-01
      0.12251879E+00      0.00000000E+00      0.67637750E-01
      0.17939379E+00      0.00000000E+00      0.67637750E-01
      0.23626879E+00      0.00000000E+00      0.67637750E-01
      0.29314379E+00      0.00000000E+00      0.67637750E-01
      0.35001879E+00      0.00000000E+00      0.67637750E-01
      0.40689379E+00      0.00000000E+00      0.67637750E-01
      0.46376879E+00      0.00000000E+00      0.67637750E-01
      0.87687900E-02      0.00000000E+00      0.12651275E+00
      0.65643790E-01      0.00000000E+00      0.12651275E+00
      0.12251879E+00      0.00000000E+00      0.12651275E+00
      0.17939379E+00      0.00000000E+00      0.12651275E+00
      0.23626879E+00      0.00000000E+00      0.12651275E+00
      0.29314379E+00      0.00000000E+00      0.12651275E+00
      0.35001879E+00      0.00000000E+00      0.12651275E+00
      0.40689379E+00      0.00000000E+00      0.12651275E+00
      0.46376879E+00      0.00000000E+00      0.12651275E+00
      0.87687900E-02      0.00000000E+00      0.18538775E+00
      0.65643790E-01      0.00000000E+00      0.18538775E+00
      0.12251879E+00      0.00000000E+00      0.18538775E+00
      0.17939379E+00      0.00000000E+00      0.18538775E+00
      0.23626879E+00      0.00000000E+00      0.18538775E+00
      0.29314379E+00      0.00000000E+00      0.18538775E+00
      0.35001879E+00      0.00000000E+00      0.18538775E+00
      0.40689379E+00      0.00000000E+00      0.18538775E+00
      0.46376879E+00      0.00000000E+00      0.18538775E+00
      0.87687900E-02      0.00000000E+00      0.24426275E+00
      0.65643790E-01      0.00000000E+00      0.24426275E+00
      0.12251879E+00      0.00000000E+00      0.24426275E+00
      0.17939379E+00      0.00000000E+00      0.24426275E+00
      0.23626879E+00      0.00000000E+00      0.24426275E+00
      0.29314379E+00      0.00000000E+00      0.24426275E+00
      0.35001879E+00      0.00000000E+00      0.24426275E+00
      0.40689379E+00      0.00000000E+00      0.24426275E+00
      0.46376879E+00      0.00000000E+00      0.24426275E+00
      0.87687900E-02      0.00000000E+00      0.30313775E+00
      0.65643790E-01      0.00000000E+00      0.30313775E+00
      0.12251879E+00      0.00000000E+00      0.30313775E+00
      0.17939379E+00      0.00000000E+00      0.30313775E+00
      0.23626879E+00      0.00000000E+00      0.30313775E+00
      0.29314379E+00      0.00000000E+00      0.30313775E+00
      0.35001879E+00      0.00000000E+00      0.30313775E+00
      0.40689379E+00      0.00000000E+00      0.30313775E+00
      0.46376879E+00      0.00000000E+00      0.30313775E+00
      0.87687900E-02      0.00000000E+00      0.36201275E+00
      0.65643790E-01      0.00000000E+00      0.36201275E+00
      0.12251879E+00      0.00000000E+00      0.36201275E+00
      0.17939379E+00      0.00000000E+00      0.36201275E+00
      0.23626879E+00      0.00000000E+00      0.36201275E+00
      0.29314379E+00      0.00000000E+00      0.36201275E+00
      0.35001879E+00      0.00000000E+00      0.36201275E+00
      0.40689379E+00      0.00000000E+00      0.36201275E+00
      0.46376879E+00      0.00000000E+00      0.36201275E+00
      0.87687900E-02      0.00000000E+00      0.42088775E+00
      0.65643790E-01      0.00000000E+00      0.42088775E+00
      0.12251879E+00      0.00000000E+00      0.42088775E+00
      0.17939379E+00      0.00000000E+00      0.42088775E+00
      0.23626879E+00      0.00000000E+00      0.42088775E+00
      0.29314379E+00      0.00000000E+00      0.42088775E+00
      0.35001879E+00      0.00000000E+00      0.42088775E+00
      0.40689379E+00      0.00000000E+00      0.42088775E+00
      0.46376879E+00      0.00000000E+00      0.42088775E+00
      0.87687900E-02      0.00000000E+00      0.47976275E+00
      0.65643790E-01      0.00000000E+00      0.47976275E+00
      0.12251879E+00      0.00000000E+00      0.47976275E+00
      0.17939379E+00      0.00000000E+00      0.47976275E+00
      0.23626879E+00      0.00000000E+00      0.47976275E+00
      0.29314379E+00      0.00000000E+00      0.47976275E+00
      0.35001879E+00      0.00000000E+00      0.47976275E+00
      0.40689379E+00      0.00000000E+00      0.47976275E+00
      0.46376879E+00      0.00000000E+00      0.47976275E+00
      0.00000000E+00     -0.30000000E-01      0.10000000E-01
[...]
POINT_DATA      9925
CELL_DATA     38427
SCALARS Resistivity(ohm.m) double 1
LOOKUP_TABLE default
            29.99875            26.70657            31.75069            33.62488            32.24745            41.65557            35.17606            31.26992            28.56633            30.12540            27.90666            24.77891            24.42492            32.25960            30.58265            33.78389            35.75049            24.84426            35.08909            25.41224            28.34799            32.15492            34.24974            33.87127            34.02129            30.77760            26.21593            30.46159            27.15002            32.83484            28.40759            31.46927            28.13792            30.89456            28.43713            23.88161            26.15341            29.81427            43.15546            24.73230            32.81325            30.44788            28.47515            29.88197            31.53747            28.91201            37.11316            39.01293            32.97274            31.99223            29.46456            28.45894            43.48139            31.33783            23.63658            32.04313            28.63836            24.09948            30.62407            26.91587            28.28274            35.42514            29.66580            28.20731            28.24728            35.27466            34.34003            32.64590            29.61969            29.66976            24.71311            26.67888            25.30469            42.69840            23.90232            25.12094            27.47001            35.25876            31.78178            42.81480            31.32287            31.43883            30.37767            24.70950            27.29345            26.62668            35.59364            34.24599            42.18390            28.30866            28.49179            27.28704            27.12369            28.50749            31.90576            27.38079            34.10195            35.27220            33.10903            34.18157            27.92653            34.80028            24.98123            32.95756            39.89619            31.64949            32.97412            35.15062            28.90729            26.06659            26.30338            27.69541            30.83541            23.84177            31.25897            25.05226            27.50104            26.53217            32.73403            25.34459            28.41979            26.43300            28.71873            31.46950            30.27627            30.18048            28.27224            25.29394            24.30061            35.25188            25.28895            28.33351            28.66699            28.62125            34.84926            33.67735            37.15344            36.23138            43.33818            25.25356            41.23319            34.92661            30.77781            27.00536            28.75445            29.40678            39.50084            31.83709            35.01950            35.26206            25.27149            30.62952            31.79937            28.63048            34.84807            26.27079            30.29017            32.00825            29.96908            25.51115            29.61778            26.23286            26.20053            24.86968            26.95395            25.76814            32.97821            32.00772            26.16741            33.67778            26.23145            40.84946            33.69689            35.06624            23.68541            36.85103            24.08206            36.64442            32.41115            24.97125            24.26277            34.19139            23.84991            33.24058            35.77892            27.44041            29.40689            33.07624            23.85568            27.13767            26.84531            28.52013            25.25488            26.31820            23.99915            35.34417            35.54457            39.89545            30.73591            32.52610            25.58080            29.22945            43.07402            24.86994            31.00956            29.66528            23.84085            32.22039            25.34510            28.12394            34.38151            31.95439            42.50914            33.75731            33.09339            34.37962            25.23868            41.79723            34.60947            23.86024            25.83218            30.77574            34.73988            35.95383            41.21128            27.92448            34.10428            25.09744            31.47861            35.15125            26.86849            28.26059            25.95657            27.66146            28.88082            27.70728            33.11040            42.30924            28.87466            24.08663            43.48352            28.60110            26.30049            43.57565            42.43622            34.03811            30.63073            41.49492            29.16558            33.18194            43.12373            35.25059            25.10519            34.85744            42.98751            30.28275            30.28912            25.56382            28.48501            23.76664            31.21981            25.66607            30.70719            33.54113            32.00136            26.31086            41.29102            27.86760            25.66137            34.00066            33.51308            28.15429            31.76131            23.70239            23.24779            36.18864            28.09851            36.33416            32.66268            24.09227            28.38643            26.66179            30.88594            34.10259            34.13358            23.44916            26.72164            33.70345            33.94134            32.15551            28.84462            25.28090            42.93809            42.96461            28.86685            28.91426            29.19181            34.73558            28.81769            30.31365            24.07677            33.32822            34.07202            43.07326            31.66123            29.09799            31.86281            31.91128            25.78919            30.08825            28.83771            33.94269            31.13946            31.85275            39.27205            31.31625            23.78395            27.60967            26.68089            38.55233            24.31073            27.13273            36.31345            35.03298            35.00011            25.60639            35.17535            26.21811            30.74509            27.05035            25.07502            43.45983            35.56121            28.83770            35.03314            26.88653            36.20078            30.39825            34.49366            33.92169            26.26995            28.14320            26.70671            27.92801            34.38692            25.84505            35.63018            25.24668            28.19168            42.60832            36.65431            28.67131            24.69113            28.93677            26.16798            28.36074            33.54124            26.86499            25.23726            29.03291            29.53597            36.54455            27.29847            36.49946            29.76999            41.37182            25.18846            29.90594            26.00151            31.78300            25.87363            28.39265            35.05269            31.42096            42.53801            25.31261            35.46310            30.02667            27.33903            26.51896            29.65035            33.47739            26.63511            26.21060            30.76478            43.53251            34.05576            28.69966            30.79834            41.91450            37.20515            32.49396            28.23813            42.71248            35.31670            25.02184            29.57531            29.23354            28.43392            25.84800            32.39322            24.72006            24.20945            27.39746            28.95866            28.43453            25.33357            30.66418            30.17377            28.59430            32.29567            33.94286            35.17270            29.44760            36.78784            28.77458            34.09809            27.91671            30.73366            31.84759            27.56486            25.20953            36.63710            33.55549            25.35642            33.63389            34.46978            30.23651            34.02638            32.34038            31.43987            24.63385            25.37759            29.99938            29.52642            31.63017            29.59622            28.59460            30.38539            25.06204            24.34327            24.84436            34.95429            32.47842            30.69276            31.92466            32.50021            24.61710            31.09117            29.57275            26.33358            27.96130            25.49604            26.38919            31.05290            26.14217            26.09767            34.13100            43.46907            43.04944            35.80394            25.21419            31.58513            30.97760            28.54910            30.33272            26.41494            32.26136            27.38922            30.39430            24.93233            28.46839            32.92802            27.39090            24.02137            24.40526            31.07686            34.14776            28.11276            43.39565            30.48576            27.86512            33.99124            32.37497            29.63224            26.01685            36.46069            32.27349            36.86877            30.82095            29.17220            43.12521            28.92591            30.62627            25.26510            27.66294            27.07722            25.33447            28.85970            42.30394            32.28141            33.54515            28.23733            29.13396            23.81400            36.13094            25.62302            30.32229            37.70079            43.55582            32.70732            33.47948            27.99197            24.01609            35.38311            29.47702            36.99452            28.83670            26.14340            28.72174            29.66921            33.16239            24.90464            23.48862            43.15368            32.98221            28.80408            24.19482            30.63532            31.10786            28.87552            33.86543            38.92983            29.98187            26.14445            41.05446            34.18458            42.75320            33.98588            23.85003            32.80270            31.57097            24.70992            34.23499            27.72846            34.03575            24.17486            42.82088            31.93142            24.76150            29.24788            33.97761            32.20127            33.47912            31.04805            41.31496            32.44930            33.09319            25.20002            28.59042            42.58017            24.86396            32.05979            30.27982            30.65585            31.73871            36.67178            26.87048            34.86975            26.78680            24.67552            28.51862            28.89427            42.93317            35.85510            30.58944            40.13713            24.68115            27.50683            34.45209            31.44517            26.91376            34.33908            23.55735            32.81403            43.12556            30.20598            30.36637            25.34034            36.58706            42.62178            36.50476            25.14443            41.83611            28.89825            32.33390            28.66544            37.12061            30.71760            33.98697            30.18433            33.93480            28.88904            29.27397            28.95484            36.96076            31.70843            27.27318            24.26778            41.05063            33.51098            30.77468            36.03579            30.68202            29.69733            33.08645            33.55098            26.19722            27.94152            31.18606            36.91335            36.68569            30.33194            28.85997            24.26023            35.90547            32.30995            25.48428            28.64121            31.30934            36.38754            34.82454            28.53784            24.88757            40.36207            39.70192            36.12145            34.99038            32.30405            35.20830            24.67767            35.00237            26.56346            26.81677            29.95727            33.87255            24.86900            31.60253            32.02575            26.65273            35.49952            25.67454            32.51969            27.16027            41.67672            26.03868            34.08958            36.54720            24.28782            26.11295            23.70098            33.85639            29.33809            29.52869            27.00580            25.59483            32.91693            26.14516            43.00439            29.82348            32.14330            26.01479            32.28897            28.93428            43.41833            26.38738            26.78464            32.09680            31.59988            33.89043            25.34562            25.76461            26.35207            34.45446            26.05197            24.85125            33.12534            29.29399            26.93521            27.91262            36.68985            37.15038            35.96248            36.37086            29.41283            25.27738            33.85207            29.12923            32.08031            24.89628            25.93339            33.79297            30.92154            25.49489            35.13621            25.33654            25.54015            35.72315            30.42754            29.85083            23.26862            41.99676            34.87178            28.55927            24.11699            30.68520            33.93296            30.74710            35.24696            39.47503            24.97542            30.83101            32.65329            26.08844            24.63553            32.97377            42.14004            28.29356            33.18601            32.87822            29.03438            27.56624            33.86755            38.80811            33.58094            28.12411            24.55496            33.12269            36.92286            37.63718            32.24449            35.05724            42.18140            32.56946            43.25954            36.45493            29.96530            35.13028            28.36559            24.80466            34.49271            35.17572            29.55791            27.14716            26.29909            26.26611            25.67932            24.63652            31.16576            26.37381            31.79354            31.56377            31.14220            29.87279            42.97580            30.76236            24.79959            26.22453            36.40544            29.10550            33.07872            27.92682            35.77483            30.55311            27.72384            33.61471            31.93990            25.53780            25.74263            26.08070            31.78481            34.46011            29.15475            34.20937            32.05501            32.60303            25.05620            28.12704            36.39497            28.52820            32.19983            25.59160            31.96773            26.22335            28.07253            32.43993            31.39344            31.69855            24.05944            36.82880            26.02504            29.78842            32.52942            34.58938            32.11462            31.04071            34.74262            26.61738            29.65770            42.34520            23.76540            23.48329            42.95605            31.90998            35.66428            26.88754            32.73983            26.60756            33.97767            30.86628            29.68374            30.63817            26.16139            37.56945            30.00185            43.04763            28.80390            27.14871            25.24234            29.07206            32.70189            24.80244            33.08006            24.29368            34.21586            24.93638            24.89561            32.17510            31.98973            24.95718            34.75601            27.79643            42.54439            43.28642            32.45442            27.13681            25.15524            30.94122            30.45123            38.43125            32.24663            30.19971            30.19200            25.00771            28.65779            31.11702            29.59557            43.23819            31.52583            36.85488            29.49359            29.83490            36.67725            25.64444            31.45888            41.33513            23.42501            29.34773            36.32118            43.10588            29.74381            34.99785            30.90178            34.80201            41.00854            26.00672            32.60832            28.95809            25.19258            24.53651            32.46365            29.03454            26.07986            36.65488            27.54901            34.79429            28.52179            25.18182            36.15921            29.65674            34.24538            32.70390            37.04511            43.36902            33.82923            24.65900            33.61518            42.73040            25.65068            26.50870            26.24347            29.54669            24.89487            26.76420            32.03962            35.13954            28.58331            36.78772            30.15358            39.06583            28.22550            27.76315            31.95566            42.24301            29.16682            36.33465            31.12456            35.52133            28.49524            26.15400            27.49445            27.22720            30.41470            35.94658            33.68306            35.00556            31.24533            31.10710            41.50289            36.10208            38.90321            31.78954            26.08711            24.03580            32.88468            35.68590            29.90736            34.27200            28.89961            28.62478            36.54055            28.09164            34.61134            23.61672            26.87909            31.42001            34.73838            23.98134            32.04352            42.69856            35.50477            28.66015            25.63062            35.00937            28.03032            30.96634            43.57867            33.81254            26.77532            31.92201            28.73025            33.22700            26.39985            29.88709            32.13306            30.69292            30.81242            36.22775            28.42420            27.84559            25.62641            35.59163            30.07634            36.73005            38.01799            30.48008            30.54074            30.46050            29.58444            28.81207            24.77385            34.77837            25.22171            30.25198            30.80145            36.80482            31.60932            28.70651            24.67922            31.42714            42.38896            24.27946            35.24397            29.54224            28.71688  