# vtk DataFile Version 3.0
Output from R3t
ASCII
DATASET UNSTRUCTURED_GRID
POINTS       8652 double
      0.50000000E-01     -0.50000000E-02      0.48500000E+00
      0.10000000E+00     -0.50000000E-02      0.48500000E+00
      0.15000000E+00     -0.50000000E-02      0.48500000E+00
      0.20000000E+00     -0.50000000E-02      0.48500000E+00
      0.25000000E+00     -0.50000000E-02      0.48500000E+00
      0.30000000E+00     -0.50000000E-02      0.48500000E+00
      0.35000000E+00     -0.50000000E-02      0.48500000E+00
      0.40000000E+00     -0.50000000E-02      0.48500000E+00
      0.50000000E-01      0.00000000E+00      0.42500000E+00
      0.10000000E+00      0.00000000E+00      0.42500000E+00
      0.15000000E+00      0.00000000E+00      0.42500000E+00
      0.20000000E+00      0.00000000E+00      0.42500000E+00
      0.25000000E+00      0.00000000E+00      0.42500000E+00
      0.30000000E+00      0.00000000E+00      0.42500000E+00
      0.35000000E+00      0.00000000E+00      0.42500000E+00
      0.40000000E+00      0.00000000E+00      0.42500000E+00
      0.50000000E-01      0.00000000E+00      0.37500000E+00
      0.10000000E+00      0.00000000E+00      0.37500000E+00
      0.15000000E+00      0.00000000E+00      0.37500000E+00
      0.20000000E+00      0.00000000E+00      0.37500000E+00
      0.25000000E+00      0.00000000E+00      0.37500000E+00
      0.30000000E+00      0.00000000E+00      0.37500000E+00
      0.35000000E+00      0.00000000E+00      0.37500000E+00
      0.40000000E+00      0.00000000E+00      0.37500000E+00
      0.50000000E-01      0.00000000E+00      0.32500000E+00
      0.10000000E+00      0.00000000E+00      0.32500000E+00
      0.15000000E+00      0.00000000E+00      0.32500000E+00
      0.20000000E+00      0.00000000E+00      0.32500000E+00
      0.25000000E+00      0.00000000E+00      0.32500000E+00
      0.30000000E+00      0.00000000E+00      0.32500000E+00
      0.35000000E+00      0.00000000E+00      0.32500000E+00
      0.40000000E+00      0.00000000E+00      0.32500000E+00
      0.50000000E-01      0.00000000E+00      0.27500000E+00
      0.10000000E+00      0.00000000E+00      0.27500000E+00
      0.15000000E+00      0.00000000E+00      0.27500000E+00
      0.20000000E+00      0.00000000E+00      0.27500000E+00
      0.25000000E+00      0.00000000E+00      0.27500000E+00
      0.30000000E+00      0.00000000E+00      0.27500000E+00
      0.35000000E+00      0.00000000E+00      0.27500000E+00
      0.40000000E+00      0.00000000E+00      0.27500000E+00
      0.50000000E-01      0.00000000E+00      0.22500000E+00
      0.10000000E+00      0.00000000E+00      0.22500000E+00
      0.15000000E+00      0.00000000E+00      0.22500000E+00
      0.20000000E+00      0.00000000E+00      0.22500000E+00
      0.25000000E+00      0.00000000E+00      0.22500000E+00
      0.30000000E+00      0.00000000E+00      0.22500000E+00
      0.35000000E+00      0.00000000E+00      0.22500000E+00
      0.40000000E+00      0.00000000E+00      0.22500000E+00
      0.50000000E-01      0.00000000E+00      0.17500000E+00
      0.10000000E+00      0.00000000E+00      0.17500000E+00
      0.15000000E+00      0.00000000E+00      0.17500000E+00
      0.20000000E+00      0.00000000E+00      0.17500000E+00
      0.50000000E-01      0.00000000E+00      0.12500000E+00
      0.10000000E+00      0.00000000E+00      0.12500000E+00
      0.15000000E+00      0.00000000E+00      0.12500000E+00
      0.20000000E+00      0.00000000E+00      0.12500000E+00
      0.25000000E+00      0.00000000E+00      0.12500000E+00
      0.30000000E+00      0.00000000E+00      0.12500000E+00
      0.35000000E+00      0.00000000E+00      0.12500000E+00
      0.40000000E+00      0.00000000E+00      0.12500000E+00
      0.50000000E-01      0.00000000E+00      0.75000000E-01
      0.10000000E+00      0.00000000E+00      0.75000000E-01
      0.15000000E+00      0.00000000E+00      0.75000000E-01
      0.20000000E+00      0.00000000E+00      0.75000000E-01
      0.25000000E+00      0.00000000E+00      0.75000000E-01
      0.30000000E+00      0.00000000E+00      0.75000000E-01
      0.35000000E+00      0.00000000E+00      0.75000000E-01
      0.40000000E+00      0.00000000E+00      0.75000000E-01
      0.00000000E+00      0.00000000E+00      0.00000000E+00
      0.45000000E+00      0.00000000E+00      0.00000000E+00
      0.00000000E+00      0.00000000E+00      0.50000000E+00
      0.45000000E+00      0.00000000E+00      0.50000000E+00
      0.00000000E+00     -0.30000000E-01      0.00000000E+00
      0.45000000E+00     -0.30000000E-01      0.00000000E+00
      0.00000000E+00     -0.30000000E-01      0.50000000E+00
      0.45000000E+00     -0.30000000E-01      0.50000000E+00
      0.00000000E+00     -0.30000000E-01      0.10000000E-01
      0.00000000E+00     -0.30000000E-01      0.20000000E-01
      0.00000000E+00     -0.30000000E-01      0.30000000E-01
      0.00000000E+00     -0.30000000E-01      0.40000000E-01
      0.00000000E+00     -0.30000000E-01      0.50000000E-01
      0.00000000E+00     -0.30000000E-01      0.60000000E-01
      0.00000000E+00     -0.30000000E-01      0.70000000E-01
      0.00000000E+00     -0.30000000E-01      0.80000000E-01
      0.00000000E+00     -0.30000000E-01      0.90000000E-01
      0.00000000E+00     -0.30000000E-01      0.10000000E+00
      0.00000000E+00     -0.30000000E-01      0.11000000E+00
      0.00000000E+00     -0.30000000E-01      0.12000000E+00
      0.00000000E+00     -0.30000000E-01      0.13000000E+00
      0.00000000E+00     -0.30000000E-01      0.14000000E+00
      0.00000000E+00     -0.30000000E-01      0.15000000E+00
      0.00000000E+00     -0.30000000E-01      0.16000000E+00
      0.00000000E+00     -0.30000000E-01      0.17000000E+00
      0.00000000E+00     -0.30000000E-01      0.18000000E+00
      0.00000000E+00     -0.30000000E-01      0.19000000E+00
      0.00000000E+00     -0.30000000E-01      0.20000000E+00
      0.00000000E+00     -0.30000000E-01      0.21000000E+00
      0.00000000E+00     -0.30000000E-01      0.22000000E+00
      0.00000000E+00     -0.30000000E-01      0.23000000E+00
      0.00000000E+00     -0.30000000E-01      0.24000000E+00
      0.00000000E+00     -0.30000000E-01      0.25000000E+00
      0.00000000E+00     -0.30000000E-01      0.26000000E+00
      0.00000000E+00     -0.30000000E-01      0.27000000E+00
      0.00000000E+00     -0.30000000E-01      0.28000000E+00
      0.00000000E+00     -0.30000000E-01      0.29000000E+00
      0.00000000E+00     -0.30000000E-01      0.30000000E+00
      0.00000000E+00     -0.30000000E-01      0.31000000E+00
      0.00000000E+00     -0.30000000E-01      0.32000000E+00
      0.00000000E+00     -0.30000000E-01      0.33000000E+00
      0.00000000E+00     -0.30000000E-01      0.34000000E+00
      0.00000000E+00     -0.30000000E-01      0.35000000E+00
      0.00000000E+00     -0.30000000E-01      0.36000000E+00
      0.00000000E+00     -0.30000000E-01      0.37000000E+00
      0.00000000E+00     -0.30000000E-01      0.38000000E+00
      0.00000000E+00     -0.30000000E-01      0.39000000E+00
      0.00000000E+00     -0.30000000E-01      0.40000000E+00
      0.00000000E+00     -0.30000000E-01      0.41000000E+00
      0.00000000E+00     -0.30000000E-01      0.42000000E+00
      0.00000000E+00     -0.30000000E-01      0.43000000E+00
      0.00000000E+00     -0.30000000E-01      0.44000000E+00
      0.00000000E+00     -0.30000000E-01      0.45000000E+00
      0.00000000E+00     -0.30000000E-01      0.46000000E+00
      0.00000000E+00     -0.30000000E-01      0.47000000E+00
      0.00000000E+00     -0.30000000E-01      0.48000000E+00
      0.00000000E+00     -0.30000000E-01      0.49000000E+00
      0.10000000E-01     -0.30000000E-01      0.50000000E+00
      0.20000000E-01     -0.30000000E-01      0.50000000E+00
      0.30000000E-01     -0.30000000E-01      0.50000000E+00
      0.40000000E-01     -0.30000000E-01      0.50000000E+00
      0.50000000E-01     -0.30000000E-01      0.50000000E+00
      0.60000000E-01     -0.30000000E-01      0.50000000E+00
      0.70000000E-01     -0.30000000E-01      0.50000000E+00
      0.80000000E-01     -0.30000000E-01      0.50000000E+00
      0.90000000E-01     -0.30000000E-01      0.50000000E+00
      0.10000000E+00     -0.30000000E-01      0.50000000E+00
      0.11000000E+00     -0.30000000E-01      0.50000000E+00
      0.12000000E+00     -0.30000000E-01      0.50000000E+00
      0.13000000E+00     -0.30000000E-01      0.50000000E+00
      0.14000000E+00     -0.30000000E-01      0.50000000E+00
      0.15000000E+00     -0.30000000E-01      0.50000000E+00
      0.16000000E+00     -0.30000000E-01      0.50000000E+00
      0.17000000E+00     -0.30000000E-01      0.50000000E+00
      0.18000000E+00     -0.30000000E-01      0.50000000E+00
      0.19000000E+00     -0.30000000E-01      0.50000000E+00
      0.20000000E+00     -0.30000000E-01      0.50000000E+00
      0.21000000E+00     -0.30000000E-01      0.50000000E+00
      0.22000000E+00     -0.30000000E-01      0.50000000E+00
      0.23000000E+00     -0.30000000E-01      0.50000000E+00
      0.24000000E+00     -0.30000000E-01      0.50000000E+00
      0.25000000E+00     -0.30000000E-01      0.50000000E+00
      0.26000000E+00     -0.30000000E-01      0.50000000E+00
      0.27000000E+00     -0.30000000E-01      0.50000000E+00
      0.28000000E+00     -0.30000000E-01      0.50000000E+00
      0.29000000E+00     -0.30000000E-01      0.50000000E+00
      0.30000000E+00     -0.30000000E-01      0.50000000E+00
      0.31000000E+00     -0.30000000E-01      0.50000000E+00
      0.32000000E+00     -0.30000000E-01      0.50000000E+00
      0.33000000E+00     -0.30000000E-01      0.50000000E+00
      0.34000000E+00     -0.30000000E-01      0.50000000E+00
      0.35000000E+00     -0.30000000E-01      0.50000000E+00
      0.36000000E+00     -0.30000000E-01      0.50000000E+00
      0.37000000E+00     -0.30000000E-01      0.50000000E+00
[...]
POINT_DATA      8652
CELL_DATA     32557
SCALARS Resistivity(ohm.m) double 1
LOOKUP_TABLE default
            40.54802            36.78630            39.81492            37.18481            34.79499            45.82580            41.25704            39.76899            37.94374            45.39110            44.97813            47.32349            46.75151            37.33465            33.61557            37.58342            30.94943            46.28441            39.46334            43.89567            42.56000            35.22586            30.30114            45.75774            32.43770            34.27760            39.61955            38.56829            45.63655            31.02970            38.10544            39.08965            35.06384            38.86270            36.20900            42.16809            35.23268            46.75234            34.10773            39.77616            38.85554            43.83962            38.73408            36.50350            43.37489            39.73971            38.69084            40.15762            38.45533            46.31425            32.67962            46.77547            47.47248            38.51278            40.35585            35.10051            47.33905            45.49356            46.38037            34.78006            40.24785            31.41304            35.75702            33.09513            43.47022            38.50319            42.59488            38.80342            46.26708            37.69985            35.42980            31.63207            33.78297            46.33186            41.39002            34.61258            44.25151            41.88840            31.00883            32.48151            42.80567            38.40769            38.92942            38.63227            37.92604            35.01594            44.84737            41.51626            38.41546            47.23899            34.64835            46.53593            45.10348            42.62846            41.99049            45.78199            44.53682            39.64485            35.73977            45.54412            45.05895            37.00127            38.42697            38.59820            37.93960            38.78882            34.48795            32.16931            46.64244            32.63687            44.16444            40.91199            39.07043            40.85296            40.37425            38.57413            35.17429            45.43193            35.88896            39.81581            37.54834            34.62130            40.93937            45.46354            39.10719            40.39291            39.76717            43.10652            34.15988            36.42064            41.77162            37.93457            38.28266            36.48435            47.56791            34.81198            37.24413            40.72815            37.53712            40.23024            40.32871            38.26293            42.93802            38.62781            39.58115            44.54855            36.15022            32.71675            36.28935            31.00659            36.05951            30.90521            35.74951            43.20623            39.80534            31.97389            34.83510            45.73122            40.46805            46.33836            34.28241            41.96880            31.75263            41.74176            40.83889            33.12703            41.18928            33.58345            34.35315            35.22540            45.87775            45.82742            40.28409            40.37381            45.76898            36.91540            36.81262            36.61462            37.60904            38.17662            38.55956            42.89497            41.71468            40.05900            42.32876            41.91176            38.33015            37.19818            37.20589            41.19228            34.31829            29.35958            34.75275            38.84941            44.81970            41.11781            36.52887            40.59680            39.42067            38.80667            35.60255            39.93210            39.69244            39.20994            40.02329            40.17050            35.85140            37.85340            38.50494            39.37433            38.82102            38.16514            38.22796            38.76730            35.89352            39.79022            34.31519            39.83254            36.40680            34.70509            39.63506            45.73570            35.49098            43.45913            39.74265            34.05662            46.64592            38.29107            41.78605            42.35188            41.67704            39.30070            39.86966            34.53687            37.63451            38.82096            42.48149            38.67469            41.66265            33.36194            40.76770            43.88428            36.45983            36.51298            37.08542            46.12218            39.89138            38.32513            42.90989            37.29885            40.50518            39.10046            33.29336            35.75883            44.38756            40.57991            38.37230            36.11820            35.96776            40.93651            33.52023            40.33822            33.99400            35.55190            36.28985            38.47315            42.24499            31.76931            31.46222            39.57801            36.18590            33.23321            34.13423            45.83058            35.03147            34.09701            48.09756            40.71031            38.26848            35.63137            46.39989            39.01696            37.43155            39.56604            32.06575            42.79169            35.96043            33.19178            38.82094            42.78110            41.20391            36.11223            36.89956            36.27690            41.77069            44.90731            45.37042            37.78932            34.87100            34.86923            37.58218            36.15530            42.93787            35.31166            31.58358            37.45053            35.07106            36.50848            41.75215            48.30222            30.80981            44.46675            34.46252            39.82683            37.22848            37.39243            35.26575            41.05499            45.56262            39.92071            37.66098            41.15018            37.92346            33.67783            39.72243            41.36596            42.56033            34.74165            36.17206            39.73110            33.99639            38.10854            36.16136            43.70453            46.53157            40.89440            39.96671            35.32910            37.18752            46.86081            33.23786            41.59148            44.11657            40.52625            47.53278            38.16166            40.22938            39.24756            43.80185            36.36836            36.39797            45.91107            39.08643            33.85527            39.07602            40.08917            36.58263            36.01507            34.98438            33.24363            41.16326            40.31864            40.57454            39.28167            42.80483            39.98820            41.95107            38.68245            47.42128            36.14165            41.61319            38.94132            36.86161            41.91012            39.65457            36.45248            39.57553            36.99838            42.87886            34.62940            33.32826            41.62137            42.70987            32.26806            38.46748            32.70673            35.25111            43.50527            38.65097            38.46708            46.45271            48.02912            44.93393            44.56694            37.18234            33.99685            40.55907            40.66229            34.25005            38.67386            35.17207            36.38257            39.93575            39.32473            45.54656            44.62000            45.58298            39.93157            36.13612            38.95568            38.55035            33.52855            39.22967            38.92556            31.80087            38.62120            36.15154            37.10793            38.53542            42.33382            36.17976            42.64659            37.69386            45.55143            41.41429            41.04142            36.58436            32.91697            39.83026            46.87388            39.24733            38.20493            41.99891            43.68487            42.22645            41.56641            45.66583            47.51196            34.83980            41.35357            40.99709            37.10988            48.11911            43.50698            38.57855            43.03681            35.03693            41.55116            38.91871            48.03278            39.95282            46.11581            48.19492            38.73567            42.60978            35.95359            38.63191            39.95836            41.73944            33.50302            38.19653            38.34345            36.93330            47.08915            42.14259            39.74160            40.89457            37.90759            38.17030            45.43345            35.59645            38.43190            41.35267            38.28553            32.95257            40.24671            38.94192            34.82795            41.64147            39.82381            39.88871            39.72730            39.76673            35.22802            36.46337            37.20401            41.88717            38.51132            42.56461            36.03384            45.44531            37.99525            42.86880            38.42156            30.47688            38.63828            35.29600            43.69394            47.08826            41.39123            35.67810            34.35022            44.16348            39.73863            40.00231            36.38010            44.60178            42.63875            38.71962            40.72984            35.09985            46.87656            36.08757            42.64083            38.77192            41.32138            35.52287            42.39653            39.65933            32.11619            37.88348            33.77809            39.47903            44.05132            39.87319            38.89881            36.11385            44.86992            39.84557            40.49035            38.82173            44.46560            39.37369            41.94976            37.65222            39.24083            38.90051            38.36372            47.55931            45.79415            37.37336            38.86071            36.37145            38.90765            39.89930            36.85830            39.07833            32.50771            39.73741            38.83398            44.51528            40.26989            39.33333            39.48587            40.69143            38.29861            32.07146            44.52477            38.89870            31.42990            41.06858            35.83212            36.31744            40.33644            37.33792            42.52344            33.36788            35.62951            33.30341            40.07227            38.68015            39.73943            39.96277            33.75114            29.72271            39.01796            31.02862            39.10821            39.27363            38.11122            36.03939            37.67009            30.25941            37.54454            37.92614            45.70662            29.71686            39.05332            44.09099            38.72557            39.55692            35.18086            46.87796            39.74516            35.42337            38.89592            35.85393            39.73613            38.08744            38.66224            34.35604            39.14769            38.85327            37.77043            45.70658            35.99216            34.97786            39.70111            44.82113            33.72495            39.99187            30.75717            34.13476            39.02618            43.26423            37.70123            46.51878            36.99497            39.73701            39.84812            45.39055            38.05463            33.69085            38.87980            47.32300            35.97851            38.78900            40.64620            36.88495            44.50971            41.31381            36.17416            43.43404            39.67769            40.89602            36.70561            44.75329            39.07999            40.51910            43.35356            37.34809            38.77629            40.67461            40.09218            40.54921            32.56694            36.46023            45.94209            37.94510            37.83942            43.61021            41.03302            34.11412            45.62036            36.08477            38.49552            38.79995            40.85471            36.62389            39.73882            34.70491            35.83180            39.90994            40.19242            36.39998            39.37537            47.56738            44.61270            38.69639            38.04852            38.78676            31.13520            39.75897            46.69431            40.19480            29.41882            32.26982            40.83272            41.51861            41.69871            44.50204            40.44419            45.77725            43.33814            35.73631            35.31490            44.97576            34.72015            47.58149            44.64101            41.16494            47.45627            36.34033            41.99955            38.53474            41.39799            41.91688            38.99840            40.39463            44.23923            36.93423            38.34337            44.96327            37.64557            38.14648            39.73765            34.33903            35.68655            45.79880            35.23929            41.27196            32.06970            35.74719            47.69406            38.98340            38.11927            40.82759            39.05297            47.50350            34.76866            45.99723            34.34965            38.71670            38.76894            36.87386            35.51344            40.83622            44.31046            40.28870            41.04954            40.89704            46.48952            37.36724            45.80593            35.78227            41.15675            40.93506            39.15391            40.16189            44.37207            38.46971            38.07223            46.36547            36.45565            34.10604            41.01429            32.04215            44.22482            39.02244            35.01293            37.46397            35.45381            39.82974            39.75122            38.53836            34.65283            39.00616            39.60256            36.49284            31.35667            34.55382            46.41878            41.27622            40.17858            46.37783            44.33534            40.92494            31.40019            37.67949            38.30775            38.89544            38.35883            39.82790            47.21455            36.11993            41.36218            37.61646            36.67557            41.33537            39.52079            32.13199            39.51835            45.76626            38.34444            38.54367            38.84434            39.23100            46.45331            38.03139            39.80594            43.35772            41.71544            38.48701            43.28920            38.07186            35.06440            42.31813            37.63431            38.27473            38.52151            32.79129            45.92333            38.71802            38.67546            33.09083            39.00878            36.74709            35.46957            37.72000            30.71012            39.18705            38.02795            31.91526            35.50829            46.96081            36.38533            43.13172            36.09098            43.37491            40.99749            32.43593            35.04788            40.73198            41.27712            39.56488            37.05796            33.06469            38.06183            35.33364            37.19589            33.96302            33.90651            33.11010            38.24648            41.92472            34.55207            37.70515            37.11691            43.98356            37.94339            39.13345            34.43430            36.12519            36.86816            40.54887            32.23392            32.99726            40.97698            43.07646            39.38479            38.04725            43.86141            46.69173            44.52952            43.75243            41.80034            38.72528            36.85994            38.68948            34.13850            31.69327            46.53992            37.85533            37.99126            34.84972            38.43399            41.46605            39.65491            39.06652            43.70879            42.88455            35.83259            33.33155            47.21652            38.33789            41.97567            41.83376            41.79167            39.98938            35.04252            33.10460            45.73707            41.28174            43.93914            41.50270            39.71737            32.63014            40.90583            36.44206            38.31114            35.87578            39.80264            33.30136            36.84922            34.43352            41.03916            44.88551            34.55067            39.37859            40.05291            37.59422            44.50696            33.00730            39.48025            43.33220            39.55195            42.45334            40.65225            45.66781            39.82820            32.89311            38.32750            36.68299            37.56674            40.06648            34.51858            32.30537            45.74951            36.53835            37.35937            33.17649            34.90784            33.29035            40.91518            36.87141            42.55056            40.39381            46.44843            47.07695            40.26075            46.67967            43.00119            33.99386            38.46974            42.19295            41.37254            37.39675            43.76070            36.84842            38.14695            47.38058            43.30805            45.78687            41.48225            38.85895            33.55937            37.10229            42.05937            37.51316            41.20720            42.51035            28.98962            45.74672            39.20842            34.25826            38.48296            46.69720            38.17132            39.14064            41.38214            39.72539            31.66932            43.56777            42.35708            43.73853            35.79888            35.17214            34.71396            39.76183            41.75274            41.29162            39.83868            39.54924            36.04992            39.16684            46.09365            34.00281            29.63976            43.17562            40.03285            40.64526            39.11662            39.29621            33.13390            36.70448            43.13492            39.73845            39.29039            40.88102            35.40595            47.24109            37.29597            38.59292            45.16526            40.56290  