# vtk DataFile Version 3.0
Output from R3t
ASCII
DATASET UNSTRUCTURED_GRID
POINTS       8902 double
      0.60000000E-01      0.00000000E+00      0.48700000E+00
      0.11000000E+00      0.00000000E+00      0.48700000E+00
      0.16000000E+00      0.00000000E+00      0.48700000E+00
      0.21000000E+00      0.00000000E+00      0.48700000E+00
      0.26000000E+00      0.00000000E+00      0.48700000E+00
      0.31000000E+00      0.00000000E+00      0.48700000E+00
      0.36000000E+00      0.00000000E+00      0.48700000E+00
      0.41000000E+00      0.00000000E+00      0.48700000E+00
      0.60000000E-01      0.00000000E+00      0.43500000E+00
      0.11000000E+00      0.00000000E+00      0.43500000E+00
      0.16000000E+00      0.00000000E+00      0.43500000E+00
      0.21000000E+00      0.00000000E+00      0.43500000E+00
      0.26000000E+00      0.00000000E+00      0.43500000E+00
      0.31000000E+00      0.00000000E+00      0.43500000E+00
      0.36000000E+00      0.00000000E+00      0.43500000E+00
      0.41000000E+00      0.00000000E+00      0.43500000E+00
      0.60000000E-01      0.00000000E+00      0.38500000E+00
      0.11000000E+00      0.00000000E+00      0.38500000E+00
      0.16000000E+00      0.00000000E+00      0.38500000E+00
      0.21000000E+00      0.00000000E+00      0.38500000E+00
      0.26000000E+00      0.00000000E+00      0.38500000E+00
      0.31000000E+00      0.00000000E+00      0.38500000E+00
      0.36000000E+00      0.00000000E+00      0.38500000E+00
      0.41000000E+00      0.00000000E+00      0.38500000E+00
      0.60000000E-01      0.00000000E+00      0.33500000E+00
      0.11000000E+00      0.00000000E+00      0.33500000E+00
      0.16000000E+00      0.00000000E+00      0.33500000E+00
      0.21000000E+00      0.00000000E+00      0.33500000E+00
      0.26000000E+00      0.00000000E+00      0.33500000E+00
      0.31000000E+00      0.00000000E+00      0.33500000E+00
      0.36000000E+00      0.00000000E+00      0.33500000E+00
      0.41000000E+00      0.00000000E+00      0.33500000E+00
      0.60000000E-01      0.00000000E+00      0.28500000E+00
      0.11000000E+00      0.00000000E+00      0.28500000E+00
      0.16000000E+00      0.00000000E+00      0.28500000E+00
      0.21000000E+00      0.00000000E+00      0.28500000E+00
      0.26000000E+00      0.00000000E+00      0.28500000E+00
      0.31000000E+00      0.00000000E+00      0.28500000E+00
      0.36000000E+00      0.00000000E+00      0.28500000E+00
      0.41000000E+00      0.00000000E+00      0.28500000E+00
      0.60000000E-01      0.00000000E+00      0.23500000E+00
      0.11000000E+00      0.00000000E+00      0.23500000E+00
      0.16000000E+00      0.00000000E+00      0.23500000E+00
      0.21000000E+00      0.00000000E+00      0.23500000E+00
      0.26000000E+00      0.00000000E+00      0.23500000E+00
      0.31000000E+00      0.00000000E+00      0.23500000E+00
      0.36000000E+00      0.00000000E+00      0.23500000E+00
      0.41000000E+00      0.00000000E+00      0.23500000E+00
      0.60000000E-01      0.00000000E+00      0.18500000E+00
      0.11000000E+00      0.00000000E+00      0.18500000E+00
      0.16000000E+00      0.00000000E+00      0.18500000E+00
      0.21000000E+00      0.00000000E+00      0.18500000E+00
      0.26000000E+00      0.00000000E+00      0.18500000E+00
      0.31000000E+00      0.00000000E+00      0.18500000E+00
      0.36000000E+00      0.00000000E+00      0.18500000E+00
      0.41000000E+00      0.00000000E+00      0.18500000E+00
      0.60000000E-01      0.00000000E+00      0.13500000E+00
      0.11000000E+00      0.00000000E+00      0.13500000E+00
      0.16000000E+00      0.00000000E+00      0.13500000E+00
      0.21000000E+00      0.00000000E+00      0.13500000E+00
      0.26000000E+00      0.00000000E+00      0.13500000E+00
      0.31000000E+00      0.00000000E+00      0.13500000E+00
      0.36000000E+00      0.00000000E+00      0.13500000E+00
      0.41000000E+00      0.00000000E+00      0.13500000E+00
      0.60000000E-01      0.00000000E+00      0.85000000E-01
      0.11000000E+00      0.00000000E+00      0.85000000E-01
      0.16000000E+00      0.00000000E+00      0.85000000E-01
      0.21000000E+00      0.00000000E+00      0.85000000E-01
      0.26000000E+00      0.00000000E+00      0.85000000E-01
      0.31000000E+00      0.00000000E+00      0.85000000E-01
      0.36000000E+00      0.00000000E+00      0.85000000E-01
      0.41000000E+00      0.00000000E+00      0.85000000E-01
      0.00000000E+00      0.00000000E+00      0.00000000E+00
      0.47000000E+00      0.00000000E+00      0.00000000E+00
      0.00000000E+00      0.00000000E+00      0.50000000E+00
      0.47000000E+00      0.00000000E+00      0.50000000E+00
      0.00000000E+00     -0.30000000E-01      0.00000000E+00
      0.47000000E+00     -0.30000000E-01      0.00000000E+00
      0.00000000E+00     -0.30000000E-01      0.50000000E+00
      0.47000000E+00     -0.30000000E-01      0.50000000E+00
      0.85000000E-01      0.00000000E+00      0.11000000E+00
      0.13500000E+00      0.00000000E+00      0.11000000E+00
      0.18500000E+00      0.00000000E+00      0.11000000E+00
      0.23500000E+00      0.00000000E+00      0.11000000E+00
      0.28500000E+00      0.00000000E+00      0.11000000E+00
      0.33500000E+00      0.00000000E+00      0.11000000E+00
      0.38500000E+00      0.00000000E+00      0.11000000E+00
      0.85000000E-01      0.00000000E+00      0.16000000E+00
      0.13500000E+00      0.00000000E+00      0.16000000E+00
      0.18500000E+00      0.00000000E+00      0.16000000E+00
      0.23500000E+00      0.00000000E+00      0.16000000E+00
      0.28500000E+00      0.00000000E+00      0.16000000E+00
      0.33500000E+00      0.00000000E+00      0.16000000E+00
      0.38500000E+00      0.00000000E+00      0.16000000E+00
      0.85000000E-01      0.00000000E+00      0.21000000E+00
      0.13500000E+00      0.00000000E+00      0.21000000E+00
      0.18500000E+00      0.00000000E+00      0.21000000E+00
      0.23500000E+00      0.00000000E+00      0.21000000E+00
      0.28500000E+00      0.00000000E+00      0.21000000E+00
      0.33500000E+00      0.00000000E+00      0.21000000E+00
      0.38500000E+00      0.00000000E+00      0.21000000E+00
      0.85000000E-01      0.00000000E+00      0.26000000E+00
      0.13500000E+00      0.00000000E+00      0.26000000E+00
      0.18500000E+00      0.00000000E+00      0.26000000E+00
      0.23500000E+00      0.00000000E+00      0.26000000E+00
      0.28500000E+00      0.00000000E+00      0.26000000E+00
      0.33500000E+00      0.00000000E+00      0.26000000E+00
      0.38500000E+00      0.00000000E+00      0.26000000E+00
      0.85000000E-01      0.00000000E+00      0.31000000E+00
      0.13500000E+00      0.00000000E+00      0.31000000E+00
      0.18500000E+00      0.00000000E+00      0.31000000E+00
      0.23500000E+00      0.00000000E+00      0.31000000E+00
      0.28500000E+00      0.00000000E+00      0.31000000E+00
      0.33500000E+00      0.00000000E+00      0.31000000E+00
      0.38500000E+00      0.00000000E+00      0.31000000E+00
      0.85000000E-01      0.00000000E+00      0.36000000E+00
      0.13500000E+00      0.00000000E+00      0.36000000E+00
      0.18500000E+00      0.00000000E+00      0.36000000E+00
      0.23500000E+00      0.00000000E+00      0.36000000E+00
      0.28500000E+00      0.00000000E+00      0.36000000E+00
      0.33500000E+00      0.00000000E+00      0.36000000E+00
      0.38500000E+00      0.00000000E+00      0.36000000E+00
      0.85000000E-01      0.00000000E+00      0.41000000E+00
      0.13500000E+00      0.00000000E+00      0.41000000E+00
      0.18500000E+00      0.00000000E+00      0.41000000E+00
      0.23500000E+00      0.00000000E+00      0.41000000E+00
      0.28500000E+00      0.00000000E+00      0.41000000E+00
      0.33500000E+00      0.00000000E+00      0.41000000E+00
      0.38500000E+00      0.00000000E+00      0.41000000E+00
      0.85000000E-01      0.00000000E+00      0.46000000E+00
      0.13500000E+00      0.00000000E+00      0.46000000E+00
      0.18500000E+00      0.00000000E+00      0.46000000E+00
      0.23500000E+00      0.00000000E+00      0.46000000E+00
      0.28500000E+00      0.00000000E+00      0.46000000E+00
      0.33500000E+00      0.00000000E+00      0.46000000E+00
      0.38500000E+00      0.00000000E+00      0.46000000E+00
      0.00000000E+00     -0.30000000E-01      0.10000000E-01
      0.00000000E+00     -0.30000000E-01      0.20000000E-01
      0.00000000E+00     -0.30000000E-01      0.30000000E-01
      0.00000000E+00     -0.30000000E-01      0.40000000E-01
      0.00000000E+00     -0.30000000E-01      0.50000000E-01
      0.00000000E+00     -0.30000000E-01      0.60000000E-01
      0.00000000E+00     -0.30000000E-01      0.70000000E-01
      0.00000000E+00     -0.30000000E-01      0.80000000E-01
      0.00000000E+00     -0.30000000E-01      0.90000000E-01
      0.00000000E+00     -0.30000000E-01      0.10000000E+00
      0.00000000E+00     -0.30000000E-01      0.11000000E+00
      0.00000000E+00     -0.30000000E-01      0.12000000E+00
      0.00000000E+00     -0.30000000E-01      0.13000000E+00
      0.00000000E+00     -0.30000000E-01      0.14000000E+00
      0.00000000E+00     -0.30000000E-01      0.15000000E+00
      0.00000000E+00     -0.30000000E-01      0.16000000E+00
      0.00000000E+00     -0.30000000E-01      0.17000000E+00
      0.00000000E+00     -0.30000000E-01      0.18000000E+00
      0.00000000E+00     -0.30000000E-01      0.19000000E+00
      0.00000000E+00     -0.30000000E-01      0.20000000E+00
      0.00000000E+00     -0.30000000E-01      0.21000000E+00
      0.00000000E+00     -0.30000000E-01      0.22000000E+00
      0.00000000E+00     -0.30000000E-01      0.23000000E+00
      0.00000000E+00     -0.30000000E-01      0.24000000E+00
      0.00000000E+00     -0.30000000E-01      0.25000000E+00
      0.00000000E+00     -0.30000000E-01      0.26000000E+00
[...]
POINT_DATA      8902
CELL_DATA     33226
SCALARS Resistivity(ohm.m) double 1
LOOKUP_TABLE default
           100.00000           100.00000           100.00000           100.00000           100.00000           100.00000           100.00000           100.00000           100.00000           100.00000           100.00000           100.00000           100.00000           100.00000           100.00000           100.00000           100.00000           100.00000           100.00000           100.00000           100.00000           100.00000           100.00000           100.00000           100.00000           100.00000           100.00000           100.00000           100.00000           100.00000           100.00000           100.00000           100.00000           100.00000           100.00000           100.00000           100.00000           100.00000           100.00000           100.00000           100.00000           100.00000           100.00000           100.00000           100.00000           100.00000           100.00000           100.00000           100.00000           100.00000           100.00000           100.00000           100.00000           100.00000           100.00000           100.00000           100.00000           100.00000           100.00000           100.00000           100.00000           100.00000           100.00000           100.00000           100.00000           100.00000           100.00000           100.00000           100.00000           100.00000           100.00000           100.00000           100.00000           100.00000           100.00000           100.00000           100.00000           100.00000           100.00000           100.00000           100.00000           100.00000           100.00000           100.00000           100.00000           100.00000           100.00000           100.00000           100.00000           100.00000           100.00000           100.00000           100.00000           100.00000           100.00000           100.00000           100.00000           100.00000           100.00000           100.00000           100.00000           100.00000           100.00000           100.00000           100.00000           100.00000           100.00000           100.00000           100.00000           100.00000           100.00000           100.00000           100.00000           100.00000           100.00000           100.00000           100.00000           100.00000           100.00000           100.00000           100.00000           100.00000           100.00000           100.00000           100.00000           100.00000           100.00000           100.00000           100.00000           100.00000           100.00000           100.00000           100.00000           100.00000           100.00000           100.00000           100.00000           100.00000           100.00000           100.00000           100.00000           100.00000           100.00000           100.00000           100.00000           100.00000           100.00000           100.00000           100.00000           100.00000           100.00000           100.00000           100.00000           100.00000           100.00000           100.00000           100.00000           100.00000           100.00000           100.00000           100.00000           100.00000           100.00000           100.00000           100.00000           100.00000           100.00000           100.00000           100.00000           100.00000           100.00000           100.00000           100.00000           100.00000           100.00000           100.00000           100.00000           100.00000           100.00000           100.00000           100.00000           100.00000           100.00000           100.00000           100.00000           100.00000           100.00000           100.00000           100.00000           100.00000           100.00000           100.00000           100.00000           100.00000           100.00000           100.00000           100.00000           100.00000           100.00000           100.00000           100.00000           100.00000           100.00000           100.00000           100.00000           100.00000           100.00000           100.00000           100.00000           100.00000           100.00000           100.00000           100.00000           100.00000           100.00000           100.00000           100.00000           100.00000           100.00000           100.00000           100.00000           100.00000           100.00000           100.00000           100.00000           100.00000           100.00000           100.00000           100.00000           100.00000           100.00000           100.00000           100.00000           100.00000           100.00000           100.00000           100.00000           100.00000           100.00000           100.00000           100.00000           100.00000           100.00000           100.00000           100.00000           100.00000           100.00000           100.00000           100.00000           100.00000           100.00000           100.00000           100.00000           100.00000           100.00000           100.00000           100.00000           100.00000           100.00000           100.00000           100.00000           100.00000           100.00000           100.00000           100.00000           100.00000           100.00000           100.00000           100.00000           100.00000           100.00000           100.00000           100.00000           100.00000           100.00000           100.00000           100.00000           100.00000           100.00000           100.00000           100.00000           100.00000           100.00000           100.00000           100.00000           100.00000           100.00000           100.00000           100.00000           100.00000           100.00000           100.00000           100.00000           100.00000           100.00000           100.00000           100.00000           100.00000           100.00000           100.00000           100.00000           100.00000           100.00000           100.00000           100.00000           100.00000           100.00000           100.00000           100.00000           100.00000           100.00000           100.00000           100.00000           100.00000           100.00000           100.00000           100.00000           100.00000           100.00000           100.00000           100.00000           100.00000           100.00000           100.00000           100.00000           100.00000           100.00000           100.00000           100.00000           100.00000           100.00000           100.00000           100.00000           100.00000           100.00000           100.00000           100.00000           100.00000           100.00000           100.00000           100.00000           100.00000           100.00000           100.00000           100.00000           100.00000           100.00000           100.00000           100.00000           100.00000           100.00000           100.00000           100.00000           100.00000           100.00000           100.00000           100.00000           100.00000           100.00000           100.00000           100.00000           100.00000           100.00000           100.00000           100.00000           100.00000           100.00000           100.00000           100.00000           100.00000           100.00000           100.00000           100.00000           100.00000           100.00000           100.00000           100.00000           100.00000           100.00000           100.00000           100.00000           100.00000           100.00000           100.00000           100.00000           100.00000           100.00000           100.00000           100.00000           100.00000           100.00000           100.00000           100.00000           100.00000           100.00000           100.00000           100.00000           100.00000           100.00000           100.00000           100.00000           100.00000           100.00000           100.00000           100.00000           100.00000           100.00000           100.00000           100.00000           100.00000           100.00000           100.00000           100.00000           100.00000           100.00000           100.00000           100.00000           100.00000           100.00000           100.00000           100.00000           100.00000           100.00000           100.00000           100.00000           100.00000           100.00000           100.00000           100.00000           100.00000           100.00000           100.00000           100.00000           100.00000           100.00000           100.00000           100.00000           100.00000           100.00000           100.00000           100.00000           100.00000           100.00000           100.00000           100.00000           100.00000           100.00000           100.00000           100.00000           100.00000           100.00000           100.00000           100.00000           100.00000           100.00000           100.00000           100.00000           100.00000           100.00000           100.00000           100.00000           100.00000           100.00000           100.00000           100.00000           100.00000           100.00000           100.00000           100.00000           100.00000           100.00000           100.00000           100.00000           100.00000           100.00000           100.00000           100.00000           100.00000           100.00000           100.00000           100.00000           100.00000           100.00000           100.00000           100.00000           100.00000           100.00000           100.00000           100.00000           100.00000           100.00000           100.00000           100.00000           100.00000           100.00000           100.00000           100.00000           100.00000           100.00000           100.00000           100.00000           100.00000           100.00000           100.00000           100.00000           100.00000           100.00000           100.00000           100.00000           100.00000           100.00000           100.00000           100.00000           100.00000           100.00000           100.00000           100.00000           100.00000           100.00000           100.00000           100.00000           100.00000           100.00000           100.00000           100.00000           100.00000           100.00000           100.00000           100.00000           100.00000           100.00000           100.00000           100.00000           100.00000           100.00000           100.00000           100.00000           100.00000           100.00000           100.00000           100.00000           100.00000           100.00000           100.00000           100.00000           100.00000           100.00000           100.00000           100.00000           100.00000           100.00000           100.00000           100.00000           100.00000           100.00000           100.00000           100.00000           100.00000           100.00000           100.00000           100.00000           100.00000           100.00000           100.00000           100.00000           100.00000           100.00000           100.00000           100.00000           100.00000           100.00000           100.00000           100.00000           100.00000           100.00000           100.00000           100.00000           100.00000           100.00000           100.00000           100.00000           100.00000           100.00000           100.00000           100.00000           100.00000           100.00000           100.00000           100.00000           100.00000           100.00000           100.00000           100.00000           100.00000           100.00000           100.00000           100.00000           100.00000           100.00000           100.00000           100.00000           100.00000           100.00000           100.00000           100.00000           100.00000           100.00000           100.00000           100.00000           100.00000           100.00000           100.00000           100.00000           100.00000           100.00000           100.00000           100.00000           100.00000           100.00000           100.00000           100.00000           100.00000           100.00000           100.00000           100.00000           100.00000           100.00000           100.00000           100.00000           100.00000           100.00000           100.00000           100.00000           100.00000           100.00000           100.00000           100.00000           100.00000           100.00000           100.00000           100.00000           100.00000           100.00000           100.00000           100.00000           100.00000           100.00000           100.00000           100.00000           100.00000           100.00000           100.00000           100.00000           100.00000           100.00000           100.00000           100.00000           100.00000           100.00000           100.00000           100.00000           100.00000           100.00000           100.00000           100.00000           100.00000           100.00000           100.00000           100.00000           100.00000           100.00000           100.00000           100.00000           100.00000           100.00000           100.00000           100.00000           100.00000           100.00000           100.00000           100.00000           100.00000           100.00000           100.00000           100.00000           100.00000           100.00000           100.00000           100.00000           100.00000           100.00000           100.00000           100.00000           100.00000           100.00000           100.00000           100.00000           100.00000           100.00000           100.00000           100.00000           100.00000           100.00000           100.00000           100.00000           100.00000           100.00000           100.00000           100.00000           100.00000           100.00000           100.00000           100.00000           100.00000           100.00000           100.00000           100.00000           100.00000           100.00000           100.00000           100.00000           100.00000           100.00000           100.00000           100.00000           100.00000           100.00000           100.00000           100.00000           100.00000           100.00000           100.00000           100.00000           100.00000           100.00000           100.00000           100.00000           100.00000           100.00000           100.00000           100.00000           100.00000           100.00000           100.00000           100.00000           100.00000           100.00000           100.00000           100.00000           100.00000           100.00000           100.00000           100.00000           100.00000           100.00000           100.00000           100.00000           100.00000           100.00000           100.00000           100.00000           100.00000           100.00000           100.00000           100.00000           100.00000           100.00000           100.00000           100.00000           100.00000           100.00000           100.00000           100.00000           100.00000           100.00000           100.00000           100.00000           100.00000           100.00000           100.00000           100.00000           100.00000           100.00000           100.00000           100.00000           100.00000           100.00000           100.00000           100.00000           100.00000           100.00000           100.00000           100.00000           100.00000           100.00000           100.00000           100.00000           100.00000           100.00000           100.00000           100.00000           100.00000           100.00000           100.00000           100.00000           100.00000           100.00000           100.00000           100.00000           100.00000           100.00000           100.00000           100.00000           100.00000           100.00000           100.00000           100.00000           100.00000           100.00000           100.00000           100.00000           100.00000           100.00000           100.00000           100.00000           100.00000           100.00000           100.00000           100.00000           100.00000           100.00000           100.00000           100.00000           100.00000           100.00000           100.00000           100.00000           100.00000           100.00000           100.00000           100.00000           100.00000           100.00000           100.00000           100.00000           100.00000           100.00000           100.00000           100.00000           100.00000           100.00000           100.00000           100.00000           100.00000           100.00000           100.00000           100.00000           100.00000           100.00000           100.00000           100.00000           100.00000           100.00000           100.00000           100.00000           100.00000           100.00000           100.00000           100.00000           100.00000           100.00000           100.00000           100.00000           100.00000           100.00000           100.00000           100.00000           100.00000           100.00000           100.00000           100.00000           100.00000           100.00000           100.00000           100.00000           100.00000           100.00000           100.00000           100.00000           100.00000           100.00000           100.00000           100.00000           100.00000           100.00000           100.00000           100.00000           100.00000           100.00000           100.00000           100.00000           100.00000           100.00000           100.00000           100.00000           100.00000           100.00000           100.00000           100.00000           100.00000           100.00000           100.00000           100.00000           100.00000           100.00000           100.00000           100.00000           100.00000           100.00000           100.00000           100.00000           100.00000           100.00000           100.00000           100.00000           100.00000           100.00000           100.00000           100.00000           100.00000           100.00000           100.00000           100.00000           100.00000           100.00000           100.00000           100.00000           100.00000           100.00000           100.00000           100.00000           100.00000           100.00000           100.00000           100.00000           100.00000           100.00000           100.00000           100.00000           100.00000           100.00000           100.00000           100.00000           100.00000           100.00000           100.00000           100.00000           100.00000           100.00000           100.00000           100.00000           100.00000           100.00000           100.00000           100.00000           100.00000           100.00000           100.00000           100.00000           100.00000           100.00000           100.00000           100.00000           100.00000           100.00000           100.00000           100.00000           100.00000           100.00000           100.00000           100.00000           100.00000           100.00000           100.00000           100.00000           100.00000           100.00000           100.00000           100.00000           100.00000           100.00000           100.00000           100.00000           100.00000           100.00000  