# vtk DataFile Version 3.0
Output from R3t
ASCII
DATASET UNSTRUCTURED_GRID
POINTS       8966 double
      0.50000000E-01     -0.50000000E-02      0.48500000E+00
      0.10000000E+00     -0.50000000E-02      0.48500000E+00
      0.15000000E+00     -0.50000000E-02      0.48500000E+00
      0.20000000E+00     -0.50000000E-02      0.48500000E+00
      0.25000000E+00     -0.50000000E-02      0.48500000E+00
      0.30000000E+00     -0.50000000E-02      0.48500000E+00
      0.35000000E+00     -0.50000000E-02      0.48500000E+00
      0.40000000E+00     -0.50000000E-02      0.48500000E+00
      0.50000000E-01      0.00000000E+00      0.42500000E+00
      0.10000000E+00      0.00000000E+00      0.42500000E+00
      0.15000000E+00      0.00000000E+00      0.42500000E+00
      0.20000000E+00      0.00000000E+00      0.42500000E+00
      0.25000000E+00      0.00000000E+00      0.42500000E+00
      0.30000000E+00      0.00000000E+00      0.42500000E+00
      0.35000000E+00      0.00000000E+00      0.42500000E+00
      0.40000000E+00      0.00000000E+00      0.42500000E+00
      0.50000000E-01      0.00000000E+00      0.37500000E+00
      0.10000000E+00      0.00000000E+00      0.37500000E+00
      0.15000000E+00      0.00000000E+00      0.37500000E+00
      0.20000000E+00      0.00000000E+00      0.37500000E+00
      0.25000000E+00      0.00000000E+00      0.37500000E+00
      0.30000000E+00      0.00000000E+00      0.37500000E+00
      0.35000000E+00      0.00000000E+00      0.37500000E+00
      0.40000000E+00      0.00000000E+00      0.37500000E+00
      0.50000000E-01      0.00000000E+00      0.32500000E+00
      0.10000000E+00      0.00000000E+00      0.32500000E+00
      0.15000000E+00      0.00000000E+00      0.32500000E+00
      0.20000000E+00      0.00000000E+00      0.32500000E+00
      0.25000000E+00      0.00000000E+00      0.32500000E+00
      0.30000000E+00      0.00000000E+00      0.32500000E+00
      0.35000000E+00      0.00000000E+00      0.32500000E+00
      0.40000000E+00      0.00000000E+00      0.32500000E+00
      0.50000000E-01      0.00000000E+00      0.27500000E+00
      0.10000000E+00      0.00000000E+00      0.27500000E+00
      0.15000000E+00      0.00000000E+00      0.27500000E+00
      0.20000000E+00      0.00000000E+00      0.27500000E+00
      0.25000000E+00      0.00000000E+00      0.27500000E+00
      0.30000000E+00      0.00000000E+00      0.27500000E+00
      0.35000000E+00      0.00000000E+00      0.27500000E+00
      0.40000000E+00      0.00000000E+00      0.27500000E+00
      0.50000000E-01      0.00000000E+00      0.22500000E+00
      0.10000000E+00      0.00000000E+00      0.22500000E+00
      0.15000000E+00      0.00000000E+00      0.22500000E+00
      0.20000000E+00      0.00000000E+00      0.22500000E+00
      0.25000000E+00      0.00000000E+00      0.22500000E+00
      0.30000000E+00      0.00000000E+00      0.22500000E+00
      0.35000000E+00      0.00000000E+00      0.22500000E+00
      0.40000000E+00      0.00000000E+00      0.22500000E+00
      0.50000000E-01      0.00000000E+00      0.17500000E+00
      0.10000000E+00      0.00000000E+00      0.17500000E+00
      0.15000000E+00      0.00000000E+00      0.17500000E+00
      0.20000000E+00      0.00000000E+00      0.17500000E+00
      0.25000000E+00      0.00000000E+00      0.17500000E+00
      0.30000000E+00      0.00000000E+00      0.17500000E+00
      0.35000000E+00      0.00000000E+00      0.17500000E+00
      0.40000000E+00      0.00000000E+00      0.17500000E+00
      0.50000000E-01      0.00000000E+00      0.12500000E+00
      0.10000000E+00      0.00000000E+00      0.12500000E+00
      0.15000000E+00      0.00000000E+00      0.12500000E+00
      0.20000000E+00      0.00000000E+00      0.12500000E+00
      0.25000000E+00      0.00000000E+00      0.12500000E+00
      0.30000000E+00      0.00000000E+00      0.12500000E+00
      0.35000000E+00      0.00000000E+00      0.12500000E+00
      0.40000000E+00      0.00000000E+00      0.12500000E+00
      0.50000000E-01      0.00000000E+00      0.75000000E-01
      0.10000000E+00      0.00000000E+00      0.75000000E-01
      0.15000000E+00      0.00000000E+00      0.75000000E-01
      0.20000000E+00      0.00000000E+00      0.75000000E-01
      0.25000000E+00      0.00000000E+00      0.75000000E-01
      0.30000000E+00      0.00000000E+00      0.75000000E-01
      0.35000000E+00      0.00000000E+00      0.75000000E-01
      0.40000000E+00      0.00000000E+00      0.75000000E-01
      0.00000000E+00      0.00000000E+00      0.00000000E+00
      0.45000000E+00      0.00000000E+00      0.00000000E+00
      0.00000000E+00      0.00000000E+00      0.50000000E+00
      0.45000000E+00      0.00000000E+00      0.50000000E+00
      0.00000000E+00     -0.30000000E-01      0.00000000E+00
      0.45000000E+00     -0.30000000E-01      0.00000000E+00
      0.00000000E+00     -0.30000000E-01      0.50000000E+00
      0.45000000E+00     -0.30000000E-01      0.50000000E+00
      0.11241060E-01      0.00000000E+00      0.11242680E-01
      0.64991060E-01      0.00000000E+00      0.11242680E-01
      0.11874106E+00      0.00000000E+00      0.11242680E-01
      0.17249106E+00      0.00000000E+00      0.11242680E-01
      0.22624106E+00      0.00000000E+00      0.11242680E-01
      0.27999106E+00      0.00000000E+00      0.11242680E-01
      0.33374106E+00      0.00000000E+00      0.11242680E-01
      0.38749106E+00      0.00000000E+00      0.11242680E-01
      0.44124106E+00      0.00000000E+00      0.11242680E-01
      0.11241060E-01      0.00000000E+00      0.64992680E-01
      0.64991060E-01      0.00000000E+00      0.64992680E-01
      0.11874106E+00      0.00000000E+00      0.64992680E-01
      0.17249106E+00      0.00000000E+00      0.64992680E-01
      0.22624106E+00      0.00000000E+00      0.64992680E-01
      0.27999106E+00      0.00000000E+00      0.64992680E-01
      0.33374106E+00      0.00000000E+00      0.64992680E-01
      0.38749106E+00      0.00000000E+00      0.64992680E-01
      0.44124106E+00      0.00000000E+00      0.64992680E-01
      0.11241060E-01      0.00000000E+00      0.11874268E+00
      0.64991060E-01      0.00000000E+00      0.11874268E+00
      0.11874106E+00      0.00000000E+00      0.11874268E+00
      0.17249106E+00      0.00000000E+00      0.11874268E+00
      0.22624106E+00      0.00000000E+00      0.11874268E+00
      0.27999106E+00      0.00000000E+00      0.11874268E+00
      0.33374106E+00      0.00000000E+00      0.11874268E+00
      0.38749106E+00      0.00000000E+00      0.11874268E+00
      0.44124106E+00      0.00000000E+00      0.11874268E+00
      0.11241060E-01      0.00000000E+00      0.17249268E+00
      0.64991060E-01      0.00000000E+00      0.17249268E+00
      0.11874106E+00      0.00000000E+00      0.17249268E+00
      0.17249106E+00      0.00000000E+00      0.17249268E+00
      0.22624106E+00      0.00000000E+00      0.17249268E+00
      0.27999106E+00      0.00000000E+00      0.17249268E+00
      0.33374106E+00      0.00000000E+00      0.17249268E+00
      0.38749106E+00      0.00000000E+00      0.17249268E+00
      0.44124106E+00      0.00000000E+00      0.17249268E+00
      0.11241060E-01      0.00000000E+00      0.22624268E+00
      0.64991060E-01      0.00000000E+00      0.22624268E+00
      0.11874106E+00      0.00000000E+00      0.22624268E+00
      0.17249106E+00      0.00000000E+00      0.22624268E+00
      0.22624106E+00      0.00000000E+00      0.22624268E+00
      0.27999106E+00      0.00000000E+00      0.22624268E+00
      0.33374106E+00      0.00000000E+00      0.22624268E+00
      0.38749106E+00      0.00000000E+00      0.22624268E+00
      0.44124106E+00      0.00000000E+00      0.22624268E+00
      0.11241060E-01      0.00000000E+00      0.27999268E+00
      0.64991060E-01      0.00000000E+00      0.27999268E+00
      0.11874106E+00      0.00000000E+00      0.27999268E+00
      0.17249106E+00      0.00000000E+00      0.27999268E+00
      0.22624106E+00      0.00000000E+00      0.27999268E+00
      0.27999106E+00      0.00000000E+00      0.27999268E+00
      0.33374106E+00      0.00000000E+00      0.27999268E+00
      0.38749106E+00      0.00000000E+00      0.27999268E+00
      0.44124106E+00      0.00000000E+00      0.27999268E+00
      0.11241060E-01      0.00000000E+00      0.33374268E+00
      0.64991060E-01      0.00000000E+00      0.33374268E+00
      0.11874106E+00      0.00000000E+00      0.33374268E+00
      0.17249106E+00      0.00000000E+00      0.33374268E+00
      0.22624106E+00      0.00000000E+00      0.33374268E+00
      0.27999106E+00      0.00000000E+00      0.33374268E+00
      0.33374106E+00      0.00000000E+00      0.33374268E+00
      0.38749106E+00      0.00000000E+00      0.33374268E+00
      0.44124106E+00      0.00000000E+00      0.33374268E+00
      0.11241060E-01      0.00000000E+00      0.38749268E+00
      0.64991060E-01      0.00000000E+00      0.38749268E+00
      0.11874106E+00      0.00000000E+00      0.38749268E+00
      0.17249106E+00      0.00000000E+00      0.38749268E+00
      0.22624106E+00      0.00000000E+00      0.38749268E+00
      0.27999106E+00      0.00000000E+00      0.38749268E+00
      0.33374106E+00      0.00000000E+00      0.38749268E+00
      0.38749106E+00      0.00000000E+00      0.38749268E+00
      0.44124106E+00      0.00000000E+00      0.38749268E+00
      0.11241060E-01      0.00000000E+00      0.44124268E+00
      0.64991060E-01      0.00000000E+00      0.44124268E+00
      0.11874106E+00      0.00000000E+00      0.44124268E+00
      0.17249106E+00      0.00000000E+00      0.44124268E+00
      0.22624106E+00      0.00000000E+00      0.44124268E+00
      0.27999106E+00      0.00000000E+00      0.44124268E+00
      0.33374106E+00      0.00000000E+00      0.44124268E+00
      0.38749106E+00      0.00000000E+00      0.44124268E+00
      0.44124106E+00      0.00000000E+00      0.44124268E+00
      0.11241060E-01      0.00000000E+00      0.49499268E+00
[...]
POINT_DATA      8966
CELL_DATA     34178
SCALARS Resistivity(ohm.m) double 1
LOOKUP_TABLE default
            27.49232            19.82611            32.22738            26.16270            32.53392            25.03503            25.96878            30.17343            27.94042            33.70448            32.59311            28.31118            21.87631            25.17015            34.46322            36.29841            43.10870            21.52805            30.67475            32.02861            28.44865            25.25471            31.99011            30.68656            40.16640            33.87012            27.25206            44.72394            37.29759            36.82472            30.50206            32.31836            21.90428            26.55368            40.24818            25.36837            39.36441            33.67202            34.66996            20.42621            28.86336            28.23493            33.56898            38.37610            30.48584            23.13580            25.47683            43.55908            36.66294            30.42148            36.79473            25.60934            21.76415            21.96234            28.90134            29.00839            33.59572            23.50613            33.69604            31.11316            26.36583            34.27611            30.09810            25.12281            23.67107            37.15833            47.38089            35.86542            32.46717            34.58121            38.44304            40.96788            28.54653            22.50845            28.28347            20.20879            42.16218            30.59261            32.18136            31.56010            30.07253            31.02459            21.97232            30.77477            32.41754            29.44352            22.22678            34.18820            30.28719            38.75907            30.39069            35.79126            22.27970            41.39254            32.53430            26.55072            43.31396            22.47108            35.27908            40.30756            27.91789            36.03090            28.31905            39.17654            31.25713            20.23980            21.56653            40.42863            35.64536            37.89819            26.05634            25.31325            26.83291            40.17083            29.31160            30.20657            25.06576            31.25156            21.52271            30.11632            24.16231            32.90624            32.70186            27.44573            21.63505            33.72144            24.39665            29.55033            30.54882            28.59484            38.99469            30.50860            32.04752            32.83181            34.14434            21.14501            38.43724            25.12166            33.61596            30.77078            35.05709            26.74861            28.68316            28.71266            30.85910            27.78883            24.11734            33.16750            29.86381            23.91015            33.25805            22.15266            31.40262            24.91931            26.57901            25.51880            30.65391            30.72250            21.64058            23.48424            37.09911            29.31163            27.42077            24.34562            32.34800            38.47668            37.34926            34.67890            38.84514            27.19691            30.57135            28.86292            37.66326            21.81250            29.40779            24.67075            31.94117            31.05695            29.05794            32.57338            42.27943            30.30981            35.79107            21.69455            26.24995            20.98308            29.69725            22.28943            24.80310            35.30741            29.58426            35.37442            28.65592            24.03240            31.89325            32.30548            30.25826            21.77298            25.87385            19.24337            44.07740            26.29924            29.81761            28.64743            19.56030            32.19668            30.39901            31.50660            25.85293            30.96490            36.14534            31.32177            28.13745            31.32678            20.69930            27.59135            30.95625            33.10264            26.39970            32.86137            33.67916            31.56098            31.45999            33.20655            32.67317            31.97039            39.20906            30.56720            25.84647            33.04537            38.29198            28.58558            41.79994            35.37218            36.31682            22.67651            39.38475            42.68349            29.14745            34.69221            34.71652            38.56940            35.38537            33.88465            23.02250            33.05735            32.01886            29.28989            33.44380            34.81742            29.57784            33.63620            21.13409            34.82701            28.22879            31.82452            25.69272            36.98619            26.73979            34.39151            26.72278            33.71443            30.99381            31.69673            27.90762            33.10179            32.61364            29.19638            21.59089            33.96471            19.52659            32.93581            37.55889            22.92546            32.82944            36.06708            30.51979            41.00221            43.19203            31.90359            31.79287            32.68316            38.84470            32.47486            24.95112            27.42702            24.41911            42.04631            31.13328            37.24173            37.59028            28.93041            29.84084            39.03824            21.95723            34.10140            19.80804            20.43916            39.46711            23.77552            24.47452            36.74356            40.35970            30.89776            23.91948            32.03765            25.63096            28.66160            33.87529            40.01590            29.61933            25.18249            33.14806            27.44652            31.36763            30.04600            36.97463            34.00391            27.56355            30.37684            39.30594            32.29689            31.63117            30.61888            25.64086            36.59023            38.43096            30.47429            30.02670            32.02532            33.19616            31.25971            22.27862            44.78913            38.79957            41.07876            39.13381            24.21395            29.25999            31.97786            23.47768            28.02878            42.61016            41.60714            32.42351            27.50277            34.09732            28.03054            24.55175            33.23695            24.29452            28.51072            32.62712            24.42248            32.87666            25.43641            24.11865            21.37539            21.16929            29.60109            36.01517            19.83698            35.83450            23.19374            25.36961            32.01208            31.04882            32.16865            26.72811            21.72281            31.77316            43.46242            30.14240            41.36712            23.54265            25.60190            31.01817            29.34612            31.28596            26.91120            38.45898            19.55006            34.01659            30.19571            23.75728            21.31579            28.39249            35.56306            28.82063            39.16979            28.83233            39.17002            30.10959            19.46701            31.84983            22.27954            22.22644            25.67944            36.65083            21.50121            37.79898            37.77804            25.17163            22.43497            26.31880            24.44255            25.44626            33.08638            47.63876            28.65993            19.81605            24.86300            21.77724            31.87140            41.21897            33.44332            26.15550            30.59096            30.62925            32.48847            39.21099            29.94096            30.10191            32.69610            30.54300            45.42446            43.36239            36.64381            28.49208            37.64873            28.21185            39.71813            33.51407            32.27723            38.67318            30.46877            30.57785            24.82422            28.82780            19.28456            42.81646            21.93209            30.82588            21.15573            24.32559            40.67052            36.59581            36.42117            31.64385            28.24476            21.72125            24.93048            29.56944            29.73217            22.83654            31.76489            35.88601            22.56479            34.10991            28.26208            30.02597            31.39578            25.36543            23.78477            28.99547            29.10987            31.31282            21.76012            23.82340            27.75946            33.42707            29.88595            24.46139            21.15518            41.40393            23.76070            22.08347            31.55274            32.19907            32.19232            32.21657            26.20742            35.27738            21.90557            30.27247            26.29093            35.81924            24.08099            38.94351            33.72508            38.93046            33.52952            26.47500            28.15334            28.88931            31.76533            28.81776            32.64047            28.65747            21.86875            26.58871            31.29317            24.15151            33.47426            23.55269            26.70425            25.83686            31.55893            28.81940            35.95699            47.76548            22.46508            35.11882            37.09888            30.25640            31.26616            31.01740            35.10984            33.69757            35.05511            32.70638            31.21620            28.74481            34.51910            32.44378            25.59248            27.86332            20.69076            31.96162            34.36913            29.92244            34.05784            26.24031            30.18713            33.39418            32.49788            24.43728            28.11755            32.84037            29.92926            32.34831            34.33524            26.26062            24.69456            32.18668            22.26938            30.40333            31.60938            30.62305            30.39360            41.38184            47.74991            35.04324            33.44333            22.37223            32.26176            21.74885            30.88200            25.17822            20.83348            31.26585            25.24482            32.78933            31.57155            25.47922            36.46884            30.76542            36.55007            30.20588            36.72857            28.27817            34.88879            32.10868            38.03490            21.87471            26.06100            41.17702            36.06222            33.61883            29.59662            22.51777            26.09566            30.53006            30.53372            25.29889            25.50639            23.35717            28.81754            22.27467            28.02391            37.83314            34.23678            35.41263            33.65426            23.66646            31.14236            24.38854            36.88163            23.29110            37.80273            46.65403            23.03249            23.61149            33.54837            21.69239            36.71562            33.42840            34.64212            31.69518            19.75861            28.93702            30.10410            29.18711            21.82412            38.48557            33.81408            21.91456            28.36225            32.44167            29.22112            22.01568            29.58124            33.30476            21.98044            27.43337            43.59152            32.53717            21.67849            22.80545            36.01476            26.78690            27.32208            21.81863            34.69216            36.50689            33.09418            35.36343            32.51218            29.94344            27.20778            31.50547            35.26106            33.84358            21.62889            34.07533            37.72665            38.98689            34.28954            29.21948            38.76334            31.64329            33.85185            25.05140            19.67319            25.55112            40.01801            25.97289            32.59971            35.42437            29.47502            33.61152            30.67494            41.66195            40.62048            29.37704            35.75537            34.46785            21.68330            22.01091            21.71999            22.42679            33.36102            27.51185            32.58063            37.15918            38.91899            25.75297            27.92786            22.31951            21.35816            31.21788            26.59568            23.92431            32.41617            25.25230            31.72270            32.37988            36.36311            32.34015            23.42318            21.86251            29.78127            26.70204            36.52521            21.26286            31.60558            28.98313            23.50886            27.45151            29.73628            34.79279            34.71409            32.34446            42.18200            27.91589            26.96314            24.33457            26.08766            32.42374            22.24713            32.37352            34.63962            31.48012            43.00237            32.87598            27.15475            21.92213            19.78400            34.61321            33.88806            30.17348            22.67006            33.56430            30.37982            33.67491            23.77236            31.05906            23.80706            23.94158            21.68931            29.81586            25.98485            30.49040            37.54153            26.67090            22.25466            24.99630            31.32778            37.04892            40.62152            32.44956            30.88524            31.91806            30.46114            24.41417            26.12998            33.02820            27.53555            20.36644            27.74473            25.69670            28.00275            29.38880            30.51741            22.80485            25.63473            30.15075            27.47696            26.19545            35.16675            21.57643            27.52352            33.45485            28.48035            29.78471            34.87556            26.40907            27.57153            39.17038            42.35069            37.85945            28.30059            21.61176            30.20417            32.72459            25.71972            23.53222            34.54501            36.95797            39.16160            36.65347            24.33107            33.24896            21.89359            24.32987            30.22619            42.59427            23.25948            33.04910            26.92325            30.97910            26.62507            47.79872            27.65757            32.84536            27.35847            26.80730            37.39509            23.18154            25.29591            30.52155            32.32015            23.29626            32.47176            32.27634            25.69915            31.16056            25.03239            20.18998            38.84408            37.80483            26.72041            24.20157            35.32096            29.64923            19.93192            23.75724            27.29173            23.84912            31.28035            30.59862            29.08673            35.33043            21.94487            20.98551            30.87029            37.16265            25.31394            20.71316            30.38720            27.40573            25.61054            43.15321            37.25048            28.76945            24.75899            35.39793            28.22790            29.96936            22.54869            35.76774            28.09509            47.79941            27.10287            34.64329            22.41265            21.06124            34.91322            31.04422            30.15290            25.00396            25.23054            34.99940            25.50593            42.78056            45.74979            34.58390            35.21343            26.83875            21.76235            26.95781            24.86345            25.40033            29.88332            25.79861            28.00109            31.61621            36.81240            41.74495            32.39362            37.90726            29.30029            31.12253            31.01970            31.43828            32.51784            32.62658            36.53903            34.18328            31.81037            27.88103            21.32358            21.32548            32.83072            31.00455            23.04377            29.84634            24.21573            30.81588            25.61595            22.36764            23.76624            38.81474            42.18853            33.57303            32.29067            32.86932            23.35061            38.89652            23.11782            31.32756            38.57235            32.61289            22.90815            25.65996            34.49655            22.68810            25.37464            42.52285            24.02966            25.34044            33.27769            30.42245            26.99612            42.58530            22.32942            22.18653            31.72561            34.41638            34.88632            27.11736            25.81117            40.77426            22.87405            32.86277            30.68855            22.19292            21.87722            29.53076            23.81887            21.63914            26.12252            34.32154            23.40520            34.62077            29.13684            38.04722            21.11859            30.99794            26.99082            30.57327            36.81807            33.34708            30.97714            30.40522            25.82520            30.99585            23.60807            26.10678            22.26732            22.95107            33.64487            22.13510            22.55834            31.71941            30.92065            22.74108            28.27023            21.01947            19.65110            22.58224            41.80125            30.92244            21.52008            40.73833            32.27157            35.95479            37.41578            31.11161            30.73931            29.96030            33.00553            30.00519            30.97253            31.51773            42.39394            37.47590            45.99308            22.31350            37.80016            30.04360            30.28872            31.35532            22.46843            33.63300            25.03698            29.70223            32.66337            36.09338            32.34508            32.17169            42.74914            30.38748            27.42973            22.71344  