# vtk DataFile Version 3.0
Output from R3t
ASCII
DATASET UNSTRUCTURED_GRID
POINTS       8966 double
      0.50000000E-01     -0.50000000E-02      0.48500000E+00
      0.10000000E+00     -0.50000000E-02      0.48500000E+00
      0.15000000E+00     -0.50000000E-02      0.48500000E+00
      0.20000000E+00     -0.50000000E-02      0.48500000E+00
      0.25000000E+00     -0.50000000E-02      0.48500000E+00
      0.30000000E+00     -0.50000000E-02      0.48500000E+00
      0.35000000E+00     -0.50000000E-02      0.48500000E+00
      0.40000000E+00     -0.50000000E-02      0.48500000E+00
      0.50000000E-01      0.00000000E+00      0.42500000E+00
      0.10000000E+00      0.00000000E+00      0.42500000E+00
      0.15000000E+00      0.00000000E+00      0.42500000E+00
      0.20000000E+00      0.00000000E+00      0.42500000E+00
      0.25000000E+00      0.00000000E+00      0.42500000E+00
      0.30000000E+00      0.00000000E+00      0.42500000E+00
      0.35000000E+00      0.00000000E+00      0.42500000E+00
      0.40000000E+00      0.00000000E+00      0.42500000E+00
      0.50000000E-01      0.00000000E+00      0.37500000E+00
      0.10000000E+00      0.00000000E+00      0.37500000E+00
      0.15000000E+00      0.00000000E+00      0.37500000E+00
      0.20000000E+00      0.00000000E+00      0.37500000E+00
      0.25000000E+00      0.00000000E+00      0.37500000E+00
      0.30000000E+00      0.00000000E+00      0.37500000E+00
      0.35000000E+00      0.00000000E+00      0.37500000E+00
      0.40000000E+00      0.00000000E+00      0.37500000E+00
      0.50000000E-01      0.00000000E+00      0.32500000E+00
      0.10000000E+00      0.00000000E+00      0.32500000E+00
      0.15000000E+00      0.00000000E+00      0.32500000E+00
      0.20000000E+00      0.00000000E+00      0.32500000E+00
      0.25000000E+00      0.00000000E+00      0.32500000E+00
      0.30000000E+00      0.00000000E+00      0.32500000E+00
      0.35000000E+00      0.00000000E+00      0.32500000E+00
      0.40000000E+00      0.00000000E+00      0.32500000E+00
      0.50000000E-01      0.00000000E+00      0.27500000E+00
      0.10000000E+00      0.00000000E+00      0.27500000E+00
      0.15000000E+00      0.00000000E+00      0.27500000E+00
      0.20000000E+00      0.00000000E+00      0.27500000E+00
      0.25000000E+00      0.00000000E+00      0.27500000E+00
      0.30000000E+00      0.00000000E+00      0.27500000E+00
      0.35000000E+00      0.00000000E+00      0.27500000E+00
      0.40000000E+00      0.00000000E+00      0.27500000E+00
      0.50000000E-01      0.00000000E+00      0.22500000E+00
      0.10000000E+00      0.00000000E+00      0.22500000E+00
      0.15000000E+00      0.00000000E+00      0.22500000E+00
      0.20000000E+00      0.00000000E+00      0.22500000E+00
      0.25000000E+00      0.00000000E+00      0.22500000E+00
      0.30000000E+00      0.00000000E+00      0.22500000E+00
      0.35000000E+00      0.00000000E+00      0.22500000E+00
      0.40000000E+00      0.00000000E+00      0.22500000E+00
      0.50000000E-01      0.00000000E+00      0.17500000E+00
      0.10000000E+00      0.00000000E+00      0.17500000E+00
      0.15000000E+00      0.00000000E+00      0.17500000E+00
      0.20000000E+00      0.00000000E+00      0.17500000E+00
      0.25000000E+00      0.00000000E+00      0.17500000E+00
      0.30000000E+00      0.00000000E+00      0.17500000E+00
      0.35000000E+00      0.00000000E+00      0.17500000E+00
      0.40000000E+00      0.00000000E+00      0.17500000E+00
      0.50000000E-01      0.00000000E+00      0.12500000E+00
      0.10000000E+00      0.00000000E+00      0.12500000E+00
      0.15000000E+00      0.00000000E+00      0.12500000E+00
      0.20000000E+00      0.00000000E+00      0.12500000E+00
      0.25000000E+00      0.00000000E+00      0.12500000E+00
      0.30000000E+00      0.00000000E+00      0.12500000E+00
      0.35000000E+00      0.00000000E+00      0.12500000E+00
      0.40000000E+00      0.00000000E+00      0.12500000E+00
      0.50000000E-01      0.00000000E+00      0.75000000E-01
      0.10000000E+00      0.00000000E+00      0.75000000E-01
      0.15000000E+00      0.00000000E+00      0.75000000E-01
      0.20000000E+00      0.00000000E+00      0.75000000E-01
      0.25000000E+00      0.00000000E+00      0.75000000E-01
      0.30000000E+00      0.00000000E+00      0.75000000E-01
      0.35000000E+00      0.00000000E+00      0.75000000E-01
      0.40000000E+00      0.00000000E+00      0.75000000E-01
      0.00000000E+00      0.00000000E+00      0.00000000E+00
      0.45000000E+00      0.00000000E+00      0.00000000E+00
      0.00000000E+00      0.00000000E+00      0.50000000E+00
      0.45000000E+00      0.00000000E+00      0.50000000E+00
      0.00000000E+00     -0.30000000E-01      0.00000000E+00
      0.45000000E+00     -0.30000000E-01      0.00000000E+00
      0.00000000E+00     -0.30000000E-01      0.50000000E+00
      0.45000000E+00     -0.30000000E-01      0.50000000E+00
      0.11241060E-01      0.00000000E+00      0.11242680E-01
      0.64991060E-01      0.00000000E+00      0.11242680E-01
      0.11874106E+00      0.00000000E+00      0.11242680E-01
      0.17249106E+00      0.00000000E+00      0.11242680E-01
      0.22624106E+00      0.00000000E+00      0.11242680E-01
      0.27999106E+00      0.00000000E+00      0.11242680E-01
      0.33374106E+00      0.00000000E+00      0.11242680E-01
      0.38749106E+00      0.00000000E+00      0.11242680E-01
      0.44124106E+00      0.00000000E+00      0.11242680E-01
      0.11241060E-01      0.00000000E+00      0.64992680E-01
      0.64991060E-01      0.00000000E+00      0.64992680E-01
      0.11874106E+00      0.00000000E+00      0.64992680E-01
      0.17249106E+00      0.00000000E+00      0.64992680E-01
      0.22624106E+00      0.00000000E+00      0.64992680E-01
      0.27999106E+00      0.00000000E+00      0.64992680E-01
      0.33374106E+00      0.00000000E+00      0.64992680E-01
      0.38749106E+00      0.00000000E+00      0.64992680E-01
      0.44124106E+00      0.00000000E+00      0.64992680E-01
      0.11241060E-01      0.00000000E+00      0.11874268E+00
      0.64991060E-01      0.00000000E+00      0.11874268E+00
      0.11874106E+00      0.00000000E+00      0.11874268E+00
      0.17249106E+00      0.00000000E+00      0.11874268E+00
      0.22624106E+00      0.00000000E+00      0.11874268E+00
      0.27999106E+00      0.00000000E+00      0.11874268E+00
      0.33374106E+00      0.00000000E+00      0.11874268E+00
      0.38749106E+00      0.00000000E+00      0.11874268E+00
      0.44124106E+00      0.00000000E+00      0.11874268E+00
      0.11241060E-01      0.00000000E+00      0.17249268E+00
      0.64991060E-01      0.00000000E+00      0.17249268E+00
      0.11874106E+00      0.00000000E+00      0.17249268E+00
      0.17249106E+00      0.00000000E+00      0.17249268E+00
      0.22624106E+00      0.00000000E+00      0.17249268E+00
      0.27999106E+00      0.00000000E+00      0.17249268E+00
      0.33374106E+00      0.00000000E+00      0.17249268E+00
      0.38749106E+00      0.00000000E+00      0.17249268E+00
      0.44124106E+00      0.00000000E+00      0.17249268E+00
      0.11241060E-01      0.00000000E+00      0.22624268E+00
      0.64991060E-01      0.00000000E+00      0.22624268E+00
      0.11874106E+00      0.00000000E+00      0.22624268E+00
      0.17249106E+00      0.00000000E+00      0.22624268E+00
      0.22624106E+00      0.00000000E+00      0.22624268E+00
      0.27999106E+00      0.00000000E+00      0.22624268E+00
      0.33374106E+00      0.00000000E+00      0.22624268E+00
      0.38749106E+00      0.00000000E+00      0.22624268E+00
      0.44124106E+00      0.00000000E+00      0.22624268E+00
      0.11241060E-01      0.00000000E+00      0.27999268E+00
      0.64991060E-01      0.00000000E+00      0.27999268E+00
      0.11874106E+00      0.00000000E+00      0.27999268E+00
      0.17249106E+00      0.00000000E+00      0.27999268E+00
      0.22624106E+00      0.00000000E+00      0.27999268E+00
      0.27999106E+00      0.00000000E+00      0.27999268E+00
      0.33374106E+00      0.00000000E+00      0.27999268E+00
      0.38749106E+00      0.00000000E+00      0.27999268E+00
      0.44124106E+00      0.00000000E+00      0.27999268E+00
      0.11241060E-01      0.00000000E+00      0.33374268E+00
      0.64991060E-01      0.00000000E+00      0.33374268E+00
      0.11874106E+00      0.00000000E+00      0.33374268E+00
      0.17249106E+00      0.00000000E+00      0.33374268E+00
      0.22624106E+00      0.00000000E+00      0.33374268E+00
      0.27999106E+00      0.00000000E+00      0.33374268E+00
      0.33374106E+00      0.00000000E+00      0.33374268E+00
      0.38749106E+00      0.00000000E+00      0.33374268E+00
      0.44124106E+00      0.00000000E+00      0.33374268E+00
      0.11241060E-01      0.00000000E+00      0.38749268E+00
      0.64991060E-01      0.00000000E+00      0.38749268E+00
      0.11874106E+00      0.00000000E+00      0.38749268E+00
      0.17249106E+00      0.00000000E+00      0.38749268E+00
      0.22624106E+00      0.00000000E+00      0.38749268E+00
      0.27999106E+00      0.00000000E+00      0.38749268E+00
      0.33374106E+00      0.00000000E+00      0.38749268E+00
      0.38749106E+00      0.00000000E+00      0.38749268E+00
      0.44124106E+00      0.00000000E+00      0.38749268E+00
      0.11241060E-01      0.00000000E+00      0.44124268E+00
      0.64991060E-01      0.00000000E+00      0.44124268E+00
      0.11874106E+00      0.00000000E+00      0.44124268E+00
      0.17249106E+00      0.00000000E+00      0.44124268E+00
      0.22624106E+00      0.00000000E+00      0.44124268E+00
      0.27999106E+00      0.00000000E+00      0.44124268E+00
      0.33374106E+00      0.00000000E+00      0.44124268E+00
      0.38749106E+00      0.00000000E+00      0.44124268E+00
      0.44124106E+00      0.00000000E+00      0.44124268E+00
      0.11241060E-01      0.00000000E+00      0.49499268E+00
[...]
POINT_DATA      8966
CELL_DATA     34178
SCALARS Resistivity(ohm.m) double 1
LOOKUP_TABLE default
            22.29284            21.73798            31.14302            22.97773            21.37062            22.99708            34.76073            27.62200            34.90693            19.02606            17.28439            26.58830            28.03829            22.90232            27.15633            30.70602            43.19559            24.19937            13.65961            31.27643            35.53185            24.14904            36.26919            10.48766            23.00143            38.56509            36.63499            34.68706            33.76986            44.03211            32.37748            12.25393            26.66212            37.51102            45.39539            28.45915            21.50919            18.71165            30.17340            21.31287            35.88050            20.73703            18.47556            40.76788            22.08038            30.89944            26.52585            42.72829            20.57122            17.58952            31.09025            24.92728            24.74805            24.44667            18.23906            36.61272            19.33486            28.04153            21.69582            10.96507            24.76311            26.14996            27.58707            24.41491            35.67233            42.82041            43.68994            18.24078            13.90962            14.79344            43.83416            48.14460            15.81000            32.26195            39.20076            21.31872            49.28471            28.13086            16.67748            37.99064             9.97096            31.20600            24.29618            38.31338            38.04718            36.09830            23.78466            20.69998            12.66620            35.18744            28.14558            33.16316            34.44860            45.31293            12.60945            33.98490            44.28570            24.20071            39.94473            45.65400            18.60740            18.14637            27.60501            22.73002            11.24525            21.14704            20.21612            43.90969            18.44810            29.70352            34.62863            33.81426            29.54765            29.99846            38.47031            11.39049            33.75734            16.17156            24.34205            32.27255            28.01579            18.02368            14.90731            26.07438            25.53476            18.35986            31.22011            40.42737            37.93960            33.38046            45.25281            31.21445            16.18272            27.38146            30.36155            28.38560            41.39548            28.93899            18.84564            30.16556            15.57700            29.55628            15.62085            30.11896            13.60848            29.27970            22.68438            15.00633            30.24079            23.24252            13.34233            27.84587            18.54277            28.29220            34.58352            26.58378            37.44100            38.32334            28.91281            25.13493            18.43664            21.03853            26.14082            22.93633            38.54538            40.88550            44.59443            30.79044            41.78428            37.83995            15.90216            35.92064            44.13933            24.07073            38.45281            21.24665            12.03164            14.68013            36.89886            17.13683            43.16567            27.83421            35.17336            24.03548            26.60305            21.78361             9.69143            27.84122            24.73277            15.81323             9.61304            33.15311            33.33514            21.24322            26.03285            40.54083            30.03163            28.88725            24.77778            24.59439            43.57773            30.83945            11.34926            34.16501            21.80706            16.47133            28.15767            15.90014            24.87589            24.15214            42.14592            15.78587            31.64488            35.75375            25.92178            27.62069            20.03810            18.19924            35.00300            31.55336            30.23277            37.94911            11.65835            19.01032            21.54507            16.12509            41.89220            22.67079            28.78734            19.08151            20.31842            33.20591            33.05707            14.94239            42.83106            28.55261            45.59874            46.75258            38.34469            41.55195            21.54445            35.44947            41.90184            30.51741            32.65363            12.64556            37.57421            40.25321            29.49394            26.10363            30.23532            30.47545            26.17971            37.41967            22.06837            18.63847            22.76153            40.32275            29.62303            39.31145            22.00306            38.47084            13.79450            15.43573            23.82230            17.92906            29.31920            36.68318            24.78922            32.24127            23.12204            28.05581            19.19111            25.30484            40.02792            43.26750            27.89847            48.15964            43.46756            39.64130            38.12636            19.79022            32.26944            16.91175            21.40861            37.68902            24.56878            33.59235            10.74026            33.85710            33.03371            36.14480            11.46641            44.80114            24.75808            30.17037            22.13793            21.25472            42.33487            35.83062            31.24502            39.47421            47.12356            31.44086            23.57404            16.17859            24.80609            33.15638            30.45564            34.73302             9.74300            22.83567            28.43870            26.09632            30.68680            18.83358            41.25329            30.04935            31.48105            12.72493            36.65426            29.68402            12.49022            27.92475            24.66758            32.12956            40.82819            30.74827            12.03786            16.03445            36.88551            30.54910            25.61075            35.41037            41.28031            46.57821            30.25512            26.87328            20.51601            28.74147            25.05342            18.46036            44.67003            45.86061            18.41781            22.17541            30.58677            26.38163            26.44364            16.48881            27.69934            22.61367            38.12575            27.17746            16.29447            23.21868            23.82374            24.18179            26.59246             9.62502            42.73536            23.53329            18.51006            27.90457            26.05580            15.97742            38.72225            39.57727            31.10546            23.83300            11.34205            42.35642            12.35624            39.69049            34.32802            23.36483            13.85650            30.70157            37.69565            25.87364            21.22577            21.57573            30.60260            38.34270            23.99898            25.64195            31.41840            15.33568            36.87717            21.24219            30.04928            31.96617            36.80205            21.51684            38.09428            30.73174            31.25740            32.24922            31.37342            21.35284            30.08734            40.31318            26.70118            23.86263            24.09847            28.46052            26.17043            19.58702            43.96518            37.01157            22.06038            25.46871            27.92704            11.66235            48.37031            13.21053            23.90031            13.42631            35.74525            26.44370            31.94965            25.69711            28.39225            24.21111            10.17258            35.28974            43.98632            41.74329            36.21205            40.85984            38.97161            30.14773            38.43070            36.47457            35.81517            29.67270            15.44509            21.30800            36.18253            24.47406            42.78624            24.76403            38.59013            24.36745            24.05028            24.04013            39.33266            43.03576            31.20808            29.47341            24.43566            23.14485            39.10588            30.06667            35.56818            37.77831            40.84979            34.09643            14.16267            33.74208            10.16954            35.84385            25.35320            23.24067            30.47602            29.49654            12.05110            23.87195            22.96540            29.12813            15.48741             9.99595            24.20356            21.77670            48.72518            30.03143            27.15530            11.71485            36.56987            22.32578            38.03105            24.73824            19.20760            24.34779            21.70181            37.69346            18.69000            23.89753            33.38383            14.16568            34.41329            29.55034            33.90755            21.08864            31.62251            24.67550            36.16753            29.61581            26.62810            24.17501            38.00301            31.83494            31.84381            21.67110            21.79142            37.55713            34.81742            16.15129            35.04329            16.81538            44.96105            31.27102            41.81519            30.98403            39.55190            21.21122            35.61988            32.03001            19.65338            14.90816            12.24542            25.04397            36.04537            32.39472            19.46768            32.27547            16.70848            27.91486            18.88970            33.15152            11.05257            39.09657            24.42758            31.11084            19.22991            29.33740            24.06527            15.64374            12.96848            11.72297            29.29718            26.75645            29.30135            28.83086            36.34091            30.08694            15.53124            21.08588            30.96519            28.80705            39.15802            44.98349            41.73043            18.73758            30.99821            22.85950            22.56381            39.22396            34.80036            26.15985            11.29330            29.65849            38.52601            15.42367            25.33969            41.81253            27.65101            31.21068            31.18035            41.92453            35.25272            17.31177            16.47591            44.21491            26.73734            34.53612            38.89285            16.76906            13.49536            31.70786            23.39812            26.78597            13.02893            29.20800            28.93010            25.20535            25.44528            32.46993            27.78202            33.08511            41.19088            30.43466            40.29774            18.41503            22.98037            38.61347            24.01407            20.64712            30.88448            44.18615            41.24121            24.75798            31.82531            21.05887            24.53138            42.05479            31.93189            17.84121            21.73468            24.15260            33.49191            12.09610            39.38803            28.35246            20.44268            22.39872            30.21647            32.67365            29.32794            40.28342            20.32424            20.94213            12.69269            24.70952            30.09126            44.23998            21.00000            24.27660            24.66223            17.84430            24.94542            25.75842            24.24594            40.03310            43.70674            13.27073            17.15790            23.81548            10.06013            35.51947            12.08200            15.45940            26.51630            22.60815            30.13319            40.31104            30.29680            38.86435            27.36866            41.25327            28.54799            13.60775            24.19161            23.06710            30.50165            22.80775            23.10238            32.86399            33.21426            36.38960            18.17351            15.54005            39.51281            47.56352            31.68814            26.37095            17.72322            29.22756            27.93174            24.15932            32.16690            29.90949            19.93020            14.92770            42.98674            41.42930            33.89964            20.83231            31.91818            24.28114            15.90348            24.41376            22.98653            18.79541            22.80560            29.06890            30.78853            31.23045            23.32584            25.35811            23.71542            37.67823            35.70579            41.62081            20.29877            11.21202            33.46733            35.14096            31.25413            25.74780            18.43001            30.17912            29.67729            42.90261            23.86758            25.78661            34.92932            23.12959            19.17921            27.81780            16.98124            37.94087            28.73252            42.68434            18.76273            26.05916            25.58818            22.42891            39.18065            40.96348            12.40169            28.47941            18.75895            37.51315            19.14527            23.32680            13.91745            23.95538            30.36444            24.04387            36.51412            33.31404            10.13205            19.83808            25.72033            27.70110            32.91891            20.84572            42.56175            47.95858            29.22445            15.57691            38.27675            12.87430            27.53841            29.29101            12.57672            25.20062            21.22889            26.11513            35.37359            24.28257            21.93114            10.16213            25.43283            24.98925            27.82324            37.94868            22.60589            40.99100            23.87570            26.05087            29.53083            39.44242            33.51895            18.59037            24.08086            20.33476            35.86395            44.02740            45.08961            22.14085            22.27963            10.83578            17.80668            24.97047            29.65078            20.20354            33.44102            44.71566            41.90947            24.30697            29.67120            29.00293            24.76349            37.54007            46.52397            24.63151            19.25070            32.49832            21.46299            37.73843            44.71648            38.11053            16.64873            25.75372            29.04449            26.24539            24.85765            24.63727            13.31373            38.03723            32.53884            17.39431            25.89220            29.87408            21.47442            24.40129            21.19816            41.49417            40.59737            36.09466            24.32067            40.28722            37.53702            24.12036            33.87702            22.46824            28.17491            11.11636            15.71739            15.33608            18.82256            23.99173            24.99456            15.57595            19.19620            25.43973            23.71617            12.73002            31.50948            27.36988            43.73805            42.77221            34.56062            24.58545            38.47745            20.75866            11.05466            23.25615            24.40941            35.84802            45.18058            31.24742            30.46378            30.21641            28.25934            39.49848            21.65842            10.03249            23.00784            26.44673            20.86481            26.04355            42.13209            39.33763            39.15766            19.18378            21.64083            28.80627            32.74280            31.74457            24.84880            10.95426            29.73428            17.37157            35.72288            31.98240            45.90668            19.79313            20.23205            39.07593            15.74018            21.57586            15.08310            39.85685            40.39208            42.96589            30.46457            37.84253            37.25686            20.61992            24.84440            32.69574            37.07764            32.57900            11.24084            25.53416            32.22552            26.92335            29.37464            34.13350            35.52117            46.78349            29.59940            19.30842            32.77429            32.21824            41.45063            23.47655            20.38214            40.98828            24.51833            23.00235            23.48098            16.80826            30.36793            25.49190            46.54871            22.43613            27.96328            40.67219            30.83758            37.62237            46.43185            30.27985            31.36927            12.09374            26.52580            37.21299            21.85200            24.81987            48.23782            24.56406            12.86068            38.62362            24.31833            24.95192            40.49045            24.37664            29.10444            27.41127            38.89708            24.65512            14.93710            15.43092            44.35237            21.98961            12.82063            37.51229            13.09027            18.63230            17.21929            13.59747            12.75882            27.68188            14.57990            29.93344            33.48626            24.04232            31.49572            14.13021            29.42638            34.88512            15.77998            18.49610            34.52512            33.98616            21.88886            21.03770            31.16483            33.18115            30.66690            23.91441            33.78841            16.08442            37.11530            44.67318            10.96614            13.73048            26.05598            16.63830            31.12537            13.76328            18.43110            37.40997            40.13866            38.15362            29.87007            44.74255            31.10818            37.93011            13.66575            31.87132            13.57056            25.88304             9.70949            39.30454            34.88127            16.40895            16.23930            41.90391            10.10244            25.70282            23.69104  