# vtk DataFile Version 3.0
Output from R3t
ASCII
DATASET UNSTRUCTURED_GRID
POINTS       9925 double
      0.60000000E-01      0.00000000E+00      0.48700000E+00
      0.11000000E+00      0.00000000E+00      0.48700000E+00
      0.16000000E+00      0.00000000E+00      0.48700000E+00
      0.21000000E+00      0.00000000E+00      0.48700000E+00
      0.26000000E+00      0.00000000E+00      0.48700000E+00
      0.31000000E+00      0.00000000E+00      0.48700000E+00
      0.36000000E+00      0.00000000E+00      0.48700000E+00
      0.41000000E+00      0.00000000E+00      0.48700000E+00
      0.60000000E-01      0.00000000E+00      0.43500000E+00
      0.11000000E+00      0.00000000E+00      0.43500000E+00
      0.16000000E+00      0.00000000E+00      0.43500000E+00
      0.21000000E+00      0.00000000E+00      0.43500000E+00
      0.26000000E+00      0.00000000E+00      0.43500000E+00
      0.31000000E+00      0.00000000E+00      0.43500000E+00
      0.36000000E+00      0.00000000E+00      0.43500000E+00
      0.41000000E+00      0.00000000E+00      0.43500000E+00
      0.60000000E-01      0.00000000E+00      0.38500000E+00
      0.11000000E+00      0.00000000E+00      0.38500000E+00
      0.16000000E+00      0.00000000E+00      0.38500000E+00
      0.21000000E+00      0.00000000E+00      0.38500000E+00
      0.26000000E+00      0.00000000E+00      0.38500000E+00
      0.31000000E+00      0.00000000E+00      0.38500000E+00
      0.36000000E+00      0.00000000E+00      0.38500000E+00
      0.41000000E+00      0.00000000E+00      0.38500000E+00
      0.60000000E-01      0.00000000E+00      0.33500000E+00
      0.11000000E+00      0.00000000E+00      0.33500000E+00
      0.16000000E+00      0.00000000E+00      0.33500000E+00
      0.21000000E+00      0.00000000E+00      0.33500000E+00
      0.26000000E+00      0.00000000E+00      0.33500000E+00
      0.31000000E+00      0.00000000E+00      0.33500000E+00
      0.36000000E+00      0.00000000E+00      0.33500000E+00
      0.41000000E+00      0.00000000E+00      0.33500000E+00
      0.60000000E-01      0.00000000E+00      0.28500000E+00
      0.11000000E+00      0.00000000E+00      0.28500000E+00
      0.16000000E+00      0.00000000E+00      0.28500000E+00
      0.21000000E+00      0.00000000E+00      0.28500000E+00
      0.26000000E+00      0.00000000E+00      0.28500000E+00
      0.31000000E+00      0.00000000E+00      0.28500000E+00
      0.36000000E+00      0.00000000E+00      0.28500000E+00
      0.41000000E+00      0.00000000E+00      0.28500000E+00
      0.60000000E-01      0.00000000E+00      0.23500000E+00
      0.11000000E+00      0.00000000E+00      0.23500000E+00
      0.16000000E+00      0.00000000E+00      0.23500000E+00
      0.21000000E+00      0.00000000E+00      0.23500000E+00
      0.26000000E+00      0.00000000E+00      0.23500000E+00
      0.31000000E+00      0.00000000E+00      0.23500000E+00
      0.36000000E+00      0.00000000E+00      0.23500000E+00
      0.41000000E+00      0.00000000E+00      0.23500000E+00
      0.60000000E-01      0.00000000E+00      0.18500000E+00
      0.11000000E+00      0.00000000E+00      0.18500000E+00
      0.16000000E+00      0.00000000E+00      0.18500000E+00
      0.21000000E+00      0.00000000E+00      0.18500000E+00
      0.26000000E+00      0.00000000E+00      0.18500000E+00
      0.31000000E+00      0.00000000E+00      0.18500000E+00
      0.36000000E+00      0.00000000E+00      0.18500000E+00
      0.41000000E+00      0.00000000E+00      0.18500000E+00
      0.60000000E-01      0.00000000E+00      0.13500000E+00
      0.11000000E+00      0.00000000E+00      0.13500000E+00
      0.16000000E+00      0.00000000E+00      0.13500000E+00
      0.21000000E+00      0.00000000E+00      0.13500000E+00
      0.26000000E+00      0.00000000E+00      0.13500000E+00
      0.31000000E+00      0.00000000E+00      0.13500000E+00
      0.36000000E+00      0.00000000E+00      0.13500000E+00
      0.41000000E+00      0.00000000E+00      0.13500000E+00
      0.60000000E-01      0.00000000E+00      0.85000000E-01
      0.11000000E+00      0.00000000E+00      0.85000000E-01
      0.16000000E+00      0.00000000E+00      0.85000000E-01
      0.21000000E+00      0.00000000E+00      0.85000000E-01
      0.26000000E+00      0.00000000E+00      0.85000000E-01
      0.31000000E+00      0.00000000E+00      0.85000000E-01
      0.36000000E+00      0.00000000E+00      0.85000000E-01
      0.41000000E+00      0.00000000E+00      0.85000000E-01
      0.00000000E+00      0.00000000E+00      0.00000000E+00
      0.47000000E+00      0.00000000E+00      0.00000000E+00
      0.00000000E+00      0.00000000E+00      0.50000000E+00
      0.47000000E+00      0.00000000E+00      0.50000000E+00
      0.00000000E+00     -0.30000000E-01      0.00000000E+00
      0.47000000E+00     -0.30000000E-01      0.00000000E+00
      0.00000000E+00     -0.30000000E-01      0.50000000E+00
      0.47000000E+00     -0.30000000E-01      0.50000000E+00
      0.87687900E-02      0.00000000E+00      0.87627500E-02
      0.65643790E-01      0.00000000E+00      0.87627500E-02
      0.12251879E+00      0.00000000E+00      0.87627500E-02
      0.17939379E+00      0.00000000E+00      0.87627500E-02
      0.23626879E+00      0.00000000E+00      0.87627500E-02
      0.29314379E+00      0.00000000E+00      0.87627500E-02
      0.35001879E+00      0.00000000E+00      0.87627500E-02
      0.40689379E+00      0.00000000E+00      0.87627500E-02
      0.46376879E+00      0.00000000E+00      0.87627500E-02
      0.87687900E-02      0.00000000E+00      0.67637750E-01
      0.65643790E-01      0.00000000E+00      0.67637750E-01
      0.12251879E+00      0.00000000E+00      0.67637750E-01
      0.17939379E+00      0.00000000E+00      0.67637750E-01
      0.23626879E+00      0.00000000E+00      0.67637750E-01
      0.29314379E+00      0.00000000E+00      0.67637750E-01
      0.35001879E+00      0.00000000E+00      0.67637750E-01
      0.40689379E+00      0.00000000E+00      0.67637750E-01
      0.46376879E+00      0.00000000E+00      0.67637750E-01
      0.87687900E-02      0.00000000E+00      0.12651275E+00
      0.65643790E-01      0.00000000E+00      0.12651275E+00
      0.12251879E+00      0.00000000E+00      0.12651275E+00
      0.17939379E+00      0.00000000E+00      0.12651275E+00
      0.23626879E+00      0.00000000E+00      0.12651275E+00
      0.29314379E+00      0.00000000E+00      0.12651275E+00
      0.35001879E+00      0.00000000E+00      0.12651275E+00
      0.40689379E+00      0.00000000E+00      0.12651275E+00
      0.46376879E+00      0.00000000E+00      0.12651275E+00
      0.87687900E-02      0.00000000E+00      0.18538775E+00
      0.65643790E-01      0.00000000E+00      0.18538775E+00
      0.12251879E+00      0.00000000E+00      0.18538775E+00
      0.17939379E+00      0.00000000E+00      0.18538775E+00
      0.23626879E+00      0.00000000E+00      0.18538775E+00
      0.29314379E+00      0.00000000E+00      0.18538775E+00
      0.35001879E+00      0.00000000E+00      0.18538775E+00
      0.40689379E+00      0.00000000E+00      0.18538775E+00
      0.46376879E+00      0.00000000E+00      0.18538775E+00
      0.87687900E-02      0.00000000E+00      0.24426275E+00
      0.65643790E-01      0.00000000E+00      0.24426275E+00
      0.12251879E+00      0.00000000E+00      0.24426275E+00
      0.17939379E+00      0.00000000E+00      0.24426275E+00
      0.23626879E+00      0.00000000E+00      0.24426275E+00
      0.29314379E+00      0.00000000E+00      0.24426275E+00
      0.35001879E+00      0.00000000E+00      0.24426275E+00
      0.40689379E+00      0.00000000E+00      0.24426275E+00
      0.46376879E+00      0.00000000E+00      0.24426275E+00
      0.87687900E-02      0.00000000E+00      0.30313775E+00
      0.65643790E-01      0.00000000E+00      0.30313775E+00
      0.12251879E+00      0.00000000E+00      0.30313775E+00
      0.17939379E+00      0.00000000E+00      0.30313775E+00
      0.23626879E+00      0.00000000E+00      0.30313775E+00
      0.29314379E+00      0.00000000E+00      0.30313775E+00
      0.35001879E+00      0.00000000E+00      0.30313775E+00
      0.40689379E+00      0.00000000E+00      0.30313775E+00
      0.46376879E+00      0.00000000E+00      0.30313775E+00
      0.87687900E-02      0.00000000E+00      0.36201275E+00
      0.65643790E-01      0.00000000E+00      0.36201275E+00
      0.12251879E+00      0.00000000E+00      0.36201275E+00
      0.17939379E+00      0.00000000E+00      0.36201275E+00
      0.23626879E+00      0.00000000E+00      0.36201275E+00
      0.29314379E+00      0.00000000E+00      0.36201275E+00
      0.35001879E+00      0.00000000E+00      0.36201275E+00
      0.40689379E+00      0.00000000E+00      0.36201275E+00
      0.46376879E+00      0.00000000E+00      0.36201275E+00
      0.87687900E-02      0.00000000E+00      0.42088775E+00
      0.65643790E-01      0.00000000E+00      0.42088775E+00
      0.12251879E+00      0.00000000E+00      0.42088775E+00
      0.17939379E+00      0.00000000E+00      0.42088775E+00
      0.23626879E+00      0.00000000E+00      0.42088775E+00
      0.29314379E+00      0.00000000E+00      0.42088775E+00
      0.35001879E+00      0.00000000E+00      0.42088775E+00
      0.40689379E+00      0.00000000E+00      0.42088775E+00
      0.46376879E+00      0.00000000E+00      0.42088775E+00
      0.87687900E-02      0.00000000E+00      0.47976275E+00
      0.65643790E-01      0.00000000E+00      0.47976275E+00
      0.12251879E+00      0.00000000E+00      0.47976275E+00
      0.17939379E+00      0.00000000E+00      0.47976275E+00
      0.23626879E+00      0.00000000E+00      0.47976275E+00
      0.29314379E+00      0.00000000E+00      0.47976275E+00
      0.35001879E+00      0.00000000E+00      0.47976275E+00
      0.40689379E+00      0.00000000E+00      0.47976275E+00
      0.46376879E+00      0.00000000E+00      0.47976275E+00
      0.00000000E+00     -0.30000000E-01      0.10000000E-01
[...]
POINT_DATA      9925
CELL_DATA     38427
SCALARS Resistivity(ohm.m) double 1
LOOKUP_TABLE default
            18.47122            23.84920            40.08609            34.06943            44.00700            41.50947            16.46530            43.59941            35.64783            19.98261            33.33868            23.89528            26.53613            44.05638            40.56394            18.16340            14.70572            22.48267            16.71665            24.44909            29.41940            15.96183            20.21854            38.82651            20.27170            38.94778            26.11300            23.81401            26.39025            32.03052            34.96391            42.05307            24.29802            40.58128            33.84899            26.24148            27.68295            20.02543            36.36751            24.50305            31.84512            24.29109            36.32206            21.60142            31.74055            29.86646            14.73806            39.35513            33.95058            42.58545            17.82415            24.61378            38.03471            32.80714            25.31485            38.08852            30.02564            22.33338            32.62389            32.82494            32.72077            19.13029            30.78347            36.62390            31.07386            15.99116            19.82855            30.67442            29.57588            30.58759            25.02383            28.88176            25.55658            36.83370            21.81188            23.11644            30.82068            16.05182            38.90948            36.98013            43.60647            41.92862            40.22027            24.40464            30.05752            30.97601            18.96656            28.26910            40.37759            29.89066            35.20322            25.58401            25.46337            24.27260            33.54018            25.62533            20.81169            16.00608            47.20503            30.08878            29.55473            18.65223            23.36498            46.20991            37.60689            42.23661            18.72015            16.45125            35.60555            26.17807            24.78432            24.98117            35.15405            25.70146            46.95968            26.97332            30.12323            23.50921            38.80506            25.39736            25.01720            29.95592            37.62610            19.33510            36.32053            31.27586            33.72669            24.40912            24.56167            20.95696            25.86892            34.68756            21.34501            37.93903            12.58125            20.70348            14.55092            17.07795            36.17336            25.84713            42.00255            13.20737            40.30939            27.26210            29.72891            30.05351            37.62905            40.34611            13.25627            16.04704            25.50186            32.59610            15.76048            35.51618            19.66756            24.62518            21.52762            16.13092            22.69948            28.62721            21.20978            25.50802            23.62522            22.54870            32.44964            24.36691            35.79024            41.35538            27.13296            32.04099            26.18861            41.60429            32.22862            16.32750            25.94731            39.99886            23.19130            15.43960            12.65349            22.69836            24.86911            13.11227            21.80456            18.72497            15.35029            20.10383            30.18302            47.15708            25.44699            25.90097            28.44279            30.47162            24.50206            27.16472            25.67764            18.75707            18.98421            41.82511            33.74803            34.05873            26.85993            18.14788            39.60105            22.82549            44.90940            21.68285            21.93219            33.92770            27.93692            28.86696            23.25614            40.11158            39.16683            17.33268            31.48344            19.71734            22.94630            41.66341            21.34463            21.85358            26.77155            20.98962            18.99901            36.91517            37.58765            29.16185            20.36257            22.43806            37.89650            18.75100            25.59243            25.00726            27.91039            19.18437            36.05032            30.39061            47.00273            41.07820            38.98960            26.63459            38.02871            25.58384            28.10269            36.72843            39.36117            20.15043            40.01978            41.62894            21.04499            33.37362            39.41440            15.74173            24.01945            17.51396            39.87657            36.95340            25.98579            27.55445            33.86753            21.78330            42.59936            27.08437            33.22882            17.68830            41.23788            27.21323            42.01545            37.07412            27.64920            20.22957            34.23258            30.84120            31.83071            25.82295            25.04837            20.51099            28.44096            20.32653            38.81112            22.27866            32.84439            30.94580            15.86861            22.54963            20.09893            24.84360            30.63685            17.93207            31.93356            43.28191            36.35003            25.17524            36.54577            38.59882            37.61723            39.22679            20.43831            19.73489            22.11189            40.06080            22.24544            18.94366            19.72458            36.39027            36.20048            21.14343            42.17333            41.82781            24.28256            35.10673            30.90279            31.27318            32.73283            12.66830            37.36976            41.34267            21.73261            28.63861            29.09395            39.75604            23.65659            25.42871            13.92627            20.91342            16.51760            24.79142            16.46589            29.52593            36.70099            25.53215            23.98560            38.12014            18.81835            26.10845            19.51838            25.31513            17.06935            40.16957            19.53438            17.88282            26.15618            36.38258            28.46986            30.81916            19.79346            29.60693            15.20015            24.00541            27.65452            39.01453            13.62552            37.47379            25.08075            25.24549            22.12877            30.11095            17.91564            21.17930            24.28067            36.62209            30.56491            15.27262            33.64380            14.09113            14.69994            41.93330            25.05078            23.99826            24.56799            36.46122            26.97498            29.34050            20.77887            36.91363            38.85335            25.78736            15.33089            31.24170            31.53197            24.22490            19.72200            17.85868            28.19796            26.18038            33.88578            36.02492            17.28347            24.58534            34.12833            38.12666            14.51644            12.57448            36.53461            38.90698            15.99240            24.62029            20.77394            29.20921            34.89696            26.29170            37.30240            22.95483            23.53400            25.11560            38.04585            25.11598            25.52628            13.85940            35.72459            25.62235            44.32569            13.07006            20.24289            39.52836            38.59947            30.73339            21.47164            22.77445            15.91284            38.13053            33.70441            25.94678            13.42894            35.25095            24.44804            17.63165            19.39096            30.46789            20.08305            16.15332            21.68271            24.04821            25.62666            35.36772            31.74647            41.59076            19.38514            21.69728            37.06487            26.88882            23.11966            23.26903            17.54547            38.44502            39.51375            40.20647            21.21258            21.66529            41.20624            17.39118            26.36992            33.17570            29.14162            27.23696            20.87695            22.55716            27.37649            30.69259            38.04836            38.36124            14.90446            24.09043            42.26350            37.45397            35.22933            36.93360            30.19769            19.72652            21.64049            22.89845            23.94511            35.21837            45.87648            19.96141            21.37275            23.54108            39.06495            19.53509            29.03638            36.70426            14.05233            32.98575            17.56755            43.61707            29.99951            27.54894            16.75855            44.21131            13.98495            31.98288            35.85859            39.40466            29.51648            25.10808            24.88415            30.67756            24.24944            27.58719            28.84843            41.09036            22.27436            17.71007            26.67747            39.73200            21.93325            40.73311            21.64575            22.09720            41.62839            36.53874            17.71766            32.75787            29.72767            25.44145            19.37367            16.00857            14.19802            19.64153            25.56237            35.69286            37.49573            31.88148            27.49884            24.89275            36.42492            35.77122            35.89587            22.71897            24.46504            32.93987            35.81176            20.28109            40.07510            39.86428            28.94176            37.35201            20.38223            38.73549            24.56092            22.01652            36.24637            33.72050            22.56172            21.33654            29.16593            20.14208            22.69279            38.63798            22.48542            25.86260            29.51989            17.94957            43.00313            34.14544            17.43253            41.89448            35.83689            47.17135            23.43345            37.39647            38.55871            23.93526            42.29346            28.32082            31.70192            38.73592            40.18935            26.21493            13.04381            28.53449            24.87826            34.77277            37.84260            39.99783            35.41090            16.25660            41.90428            24.36260            30.06501            20.62248            41.88522            32.57739            19.48204            25.75914            47.18995            39.37251            20.83542            17.93753            27.58684            40.33718            38.81714            13.98182            27.22156            41.28950            39.16206            16.24438            20.18856            14.96585            23.80534            17.16514            13.90753            20.33058            29.16035            30.96977            31.03693            13.83517            21.03760            28.74376            23.03014            41.60860            17.55992            34.31051            17.08824            40.36182            21.48038            20.67265            38.01659            24.76681            33.19771            37.20700            14.24115            13.47647            35.11237            23.71038            26.68486            15.21026            32.49990            24.90543            25.21600            47.23881            14.16088            13.09971            37.07601            26.84753            42.32278            37.01306            16.87614            17.27690            44.52946            15.79161            24.58078            20.83258            24.84899            30.66696            24.62505            17.20662            22.48133            37.74172            41.45924            26.84586            15.20187            28.89501            17.16117            32.94152            41.76436            26.74684            19.90749            13.44122            24.42524            21.57670            21.68979            15.67169            16.42008            28.50217            20.55663            28.14442            46.15398            28.60556            36.57066            37.78428            42.59203            21.36249            19.76783            36.59782            38.43850            26.27363            26.98412            42.26605            41.35344            20.32074            21.60065            27.30230            25.79444            15.81833            24.69188            22.53142            16.99936            18.26917            23.94062            29.34568            13.53833            14.70323            17.45245            16.86527            19.21914            25.41575            33.13050            25.14570            42.64850            27.80405            26.16197            20.47643            33.07865            25.33288            16.13148            27.54258            27.94539            15.37417            31.16190            23.18541            24.68527            36.91525            13.26436            32.87313            22.43367            13.11978            20.58255            34.35960            15.90461            42.17225            28.04391            39.98669            30.66973            23.39146            26.64669            33.93773            38.27489            22.53305            35.14290            28.38540            35.29274            33.85435            21.40974            39.86596            25.91179            29.13227            26.66530            47.31245            41.20186            37.81771            39.42142            16.86797            39.23222            21.43898            37.35714            16.52697            39.72264            20.96069            25.71071            27.56955            20.71502            16.15381            19.34912            24.46093            29.62050            27.94585            28.92349            24.32050            39.18178            26.42860            26.02252            40.72450            39.64206            31.01065            38.33591            33.92912            22.60592            26.14284            37.45634            35.43379            19.06443            29.30180            17.68624            40.10431            21.25398            17.83260            37.89152            25.42148            23.25690            27.27666            22.95861            19.67010            18.99149            19.89835            38.04980            12.78917            24.26567            28.73925            14.05951            35.19674            32.86708            27.41000            39.91776            23.98577            30.68639            37.18705            44.33128            32.20865            22.05056            16.70128            22.71205            17.20166            46.14636            17.70357            42.54597            31.04896            19.47614            27.23222            38.63019            41.02585            25.90028            24.91392            38.41344            40.14709            19.34539            28.59863            44.82802            29.65499            18.11944            36.39480            21.33377            37.30789            25.12438            41.58149            39.71974            39.62839            31.02509            21.17953            24.29499            39.66016            35.77541            23.73316            20.30272            26.22524            29.31309            22.60283            22.58988            43.35337            35.96143            22.19714            19.57380            34.74114            38.80379            36.69240            19.63016            23.26393            24.33477            16.90815            17.59339            38.48655            43.45331            27.42959            36.70812            22.71617            37.30751            24.81716            37.05306            36.25320            22.37852            14.29221            18.07188            23.16997            15.82688            27.19461            32.10697            41.90515            24.09877            36.36754            21.10744            36.48538            21.78990            17.28989            40.51838            20.28798            42.07154            27.10154            22.07379            37.86037            24.14397            22.12057            17.76923            21.54916            26.22716            15.47006            23.96864            19.75203            25.27714            25.73618            14.06737            30.95654            27.50436            46.85333            14.22774            37.52504            17.46020            24.71107            34.23339            38.02328            27.63219            26.12762            25.72186            19.23991            27.21370            26.84111            35.59436            16.14103            30.07187            14.05177            26.34843            39.90278            29.68942            28.20824            36.26105            40.35691            20.22189            39.85569            41.84048            15.16473            35.37072            23.37690            29.73006            25.67046            25.80168            20.79656            30.75294            16.34565            47.02195            41.88732            37.02181            16.86770            42.10532            23.40286            25.29383            21.69431            46.60333            14.71777            18.58898            27.94634            37.56488            35.81755            13.57338            29.18225            13.21084            25.59308            30.70010            40.19115            20.68726            22.14174            35.79137            37.18682            18.56570            35.99087            23.48524            16.34957            34.87769            38.17020            36.11770            34.97095            23.73633            35.39334            36.73082            21.00530            23.98934            41.62241            43.06731            39.70171            34.66448            17.69100            34.29944            29.41371            25.02052            18.73826            26.17226            14.35499            38.37059            39.89279            25.58767            25.74137            19.08437            36.71220            20.99208            18.64349            20.68441            13.78311            38.25529            16.56460            16.03371            20.78850            23.52189            15.66245            40.96910            22.70346            16.12383            20.09129            22.36711  