# vtk DataFile Version 3.0
Output from R3t
ASCII
DATASET UNSTRUCTURED_GRID
POINTS       9925 double
      0.60000000E-01      0.00000000E+00      0.48700000E+00
      0.11000000E+00      0.00000000E+00      0.48700000E+00
      0.16000000E+00      0.00000000E+00      0.48700000E+00
      0.21000000E+00      0.00000000E+00      0.48700000E+00
      0.26000000E+00      0.00000000E+00      0.48700000E+00
      0.31000000E+00      0.00000000E+00      0.48700000E+00
      0.36000000E+00      0.00000000E+00      0.48700000E+00
      0.41000000E+00      0.00000000E+00      0.48700000E+00
      0.60000000E-01      0.00000000E+00      0.43500000E+00
      0.11000000E+00      0.00000000E+00      0.43500000E+00
      0.16000000E+00      0.00000000E+00      0.43500000E+00
      0.21000000E+00      0.00000000E+00      0.43500000E+00
      0.26000000E+00      0.00000000E+00      0.43500000E+00
      0.31000000E+00      0.00000000E+00      0.43500000E+00
      0.36000000E+00      0.00000000E+00      0.43500000E+00
      0.41000000E+00      0.00000000E+00      0.43500000E+00
      0.60000000E-01      0.00000000E+00      0.38500000E+00
      0.11000000E+00      0.00000000E+00      0.38500000E+00
      0.16000000E+00      0.00000000E+00      0.38500000E+00
      0.21000000E+00      0.00000000E+00      0.38500000E+00
      0.26000000E+00      0.00000000E+00      0.38500000E+00
      0.31000000E+00      0.00000000E+00      0.38500000E+00
      0.36000000E+00      0.00000000E+00      0.38500000E+00
      0.41000000E+00      0.00000000E+00      0.38500000E+00
      0.60000000E-01      0.00000000E+00      0.33500000E+00
      0.11000000E+00      0.00000000E+00      0.33500000E+00
      0.16000000E+00      0.00000000E+00      0.33500000E+00
      0.21000000E+00      0.00000000E+00      0.33500000E+00
      0.26000000E+00      0.00000000E+00      0.33500000E+00
      0.31000000E+00      0.00000000E+00      0.33500000E+00
      0.36000000E+00      0.00000000E+00      0.33500000E+00
      0.41000000E+00      0.00000000E+00      0.33500000E+00
      0.60000000E-01      0.00000000E+00      0.28500000E+00
      0.11000000E+00      0.00000000E+00      0.28500000E+00
      0.16000000E+00      0.00000000E+00      0.28500000E+00
      0.21000000E+00      0.00000000E+00      0.28500000E+00
      0.26000000E+00      0.00000000E+00      0.28500000E+00
      0.31000000E+00      0.00000000E+00      0.28500000E+00
      0.36000000E+00      0.00000000E+00      0.28500000E+00
      0.41000000E+00      0.00000000E+00      0.28500000E+00
      0.60000000E-01      0.00000000E+00      0.23500000E+00
      0.11000000E+00      0.00000000E+00      0.23500000E+00
      0.16000000E+00      0.00000000E+00      0.23500000E+00
      0.21000000E+00      0.00000000E+00      0.23500000E+00
      0.26000000E+00      0.00000000E+00      0.23500000E+00
      0.31000000E+00      0.00000000E+00      0.23500000E+00
      0.36000000E+00      0.00000000E+00      0.23500000E+00
      0.41000000E+00      0.00000000E+00      0.23500000E+00
      0.60000000E-01      0.00000000E+00      0.18500000E+00
      0.11000000E+00      0.00000000E+00      0.18500000E+00
      0.16000000E+00      0.00000000E+00      0.18500000E+00
      0.21000000E+00      0.00000000E+00      0.18500000E+00
      0.26000000E+00      0.00000000E+00      0.18500000E+00
      0.31000000E+00      0.00000000E+00      0.18500000E+00
      0.36000000E+00      0.00000000E+00      0.18500000E+00
      0.41000000E+00      0.00000000E+00      0.18500000E+00
      0.60000000E-01      0.00000000E+00      0.13500000E+00
      0.11000000E+00      0.00000000E+00      0.13500000E+00
      0.16000000E+00      0.00000000E+00      0.13500000E+00
      0.21000000E+00      0.00000000E+00      0.13500000E+00
      0.26000000E+00      0.00000000E+00      0.13500000E+00
      0.31000000E+00      0.00000000E+00      0.13500000E+00
      0.36000000E+00      0.00000000E+00      0.13500000E+00
      0.41000000E+00      0.00000000E+00      0.13500000E+00
      0.60000000E-01      0.00000000E+00      0.85000000E-01
      0.11000000E+00      0.00000000E+00      0.85000000E-01
      0.16000000E+00      0.00000000E+00      0.85000000E-01
      0.21000000E+00      0.00000000E+00      0.85000000E-01
      0.26000000E+00      0.00000000E+00      0.85000000E-01
      0.31000000E+00      0.00000000E+00      0.85000000E-01
      0.36000000E+00      0.00000000E+00      0.85000000E-01
      0.41000000E+00      0.00000000E+00      0.85000000E-01
      0.00000000E+00      0.00000000E+00      0.00000000E+00
      0.47000000E+00      0.00000000E+00      0.00000000E+00
      0.00000000E+00      0.00000000E+00      0.50000000E+00
      0.47000000E+00      0.00000000E+00      0.50000000E+00
      0.00000000E+00     -0.30000000E-01      0.00000000E+00
      0.47000000E+00     -0.30000000E-01      0.00000000E+00
      0.00000000E+00     -0.30000000E-01      0.50000000E+00
      0.47000000E+00     -0.30000000E-01      0.50000000E+00
      0.87687900E-02      0.00000000E+00      0.87627500E-02
      0.65643790E-01      0.00000000E+00      0.87627500E-02
      0.12251879E+00      0.00000000E+00      0.87627500E-02
      0.17939379E+00      0.00000000E+00      0.87627500E-02
      0.23626879E+00      0.00000000E+00      0.87627500E-02
      0.29314379E+00      0.00000000E+00      0.87627500E-02
      0.35001879E+00      0.00000000E+00      0.87627500E-02
      0.40689379E+00      0.00000000E+00      0.87627500E-02
      0.46376879E+00      0.00000000E+00      0.87627500E-02
      0.87687900E-02      0.00000000E+00      0.67637750E-01
      0.65643790E-01      0.00000000E+00      0.67637750E-01
      0.12251879E+00      0.00000000E+00      0.67637750E-01
      0.17939379E+00      0.00000000E+00      0.67637750E-01
      0.23626879E+00      0.00000000E+00      0.67637750E-01
      0.29314379E+00      0.00000000E+00      0.67637750E-01
      0.35001879E+00      0.00000000E+00      0.67637750E-01
      0.40689379E+00      0.00000000E+00      0.67637750E-01
      0.46376879E+00      0.00000000E+00      0.67637750E-01
      0.87687900E-02      0.00000000E+00      0.12651275E+00
      0.65643790E-01      0.00000000E+00      0.12651275E+00
      0.12251879E+00      0.00000000E+00      0.12651275E+00
      0.17939379E+00      0.00000000E+00      0.12651275E+00
      0.23626879E+00      0.00000000E+00      0.12651275E+00
      0.29314379E+00      0.00000000E+00      0.12651275E+00
      0.35001879E+00      0.00000000E+00      0.12651275E+00
      0.40689379E+00      0.00000000E+00      0.12651275E+00
      0.46376879E+00      0.00000000E+00      0.12651275E+00
      0.87687900E-02      0.00000000E+00      0.18538775E+00
      0.65643790E-01      0.00000000E+00      0.18538775E+00
      0.12251879E+00      0.00000000E+00      0.18538775E+00
      0.17939379E+00      0.00000000E+00      0.18538775E+00
      0.23626879E+00      0.00000000E+00      0.18538775E+00
      0.29314379E+00      0.00000000E+00      0.18538775E+00
      0.35001879E+00      0.00000000E+00      0.18538775E+00
      0.40689379E+00      0.00000000E+00      0.18538775E+00
      0.46376879E+00      0.00000000E+00      0.18538775E+00
      0.87687900E-02      0.00000000E+00      0.24426275E+00
      0.65643790E-01      0.00000000E+00      0.24426275E+00
      0.12251879E+00      0.00000000E+00      0.24426275E+00
      0.17939379E+00      0.00000000E+00      0.24426275E+00
      0.23626879E+00      0.00000000E+00      0.24426275E+00
      0.29314379E+00      0.00000000E+00      0.24426275E+00
      0.35001879E+00      0.00000000E+00      0.24426275E+00
      0.40689379E+00      0.00000000E+00      0.24426275E+00
      0.46376879E+00      0.00000000E+00      0.24426275E+00
      0.87687900E-02      0.00000000E+00      0.30313775E+00
      0.65643790E-01      0.00000000E+00      0.30313775E+00
      0.12251879E+00      0.00000000E+00      0.30313775E+00
      0.17939379E+00      0.00000000E+00      0.30313775E+00
      0.23626879E+00      0.00000000E+00      0.30313775E+00
      0.29314379E+00      0.00000000E+00      0.30313775E+00
      0.35001879E+00      0.00000000E+00      0.30313775E+00
      0.40689379E+00      0.00000000E+00      0.30313775E+00
      0.46376879E+00      0.00000000E+00      0.30313775E+00
      0.87687900E-02      0.00000000E+00      0.36201275E+00
      0.65643790E-01      0.00000000E+00      0.36201275E+00
      0.12251879E+00      0.00000000E+00      0.36201275E+00
      0.17939379E+00      0.00000000E+00      0.36201275E+00
      0.23626879E+00      0.00000000E+00      0.36201275E+00
      0.29314379E+00      0.00000000E+00      0.36201275E+00
      0.35001879E+00      0.00000000E+00      0.36201275E+00
      0.40689379E+00      0.00000000E+00      0.36201275E+00
      0.46376879E+00      0.00000000E+00      0.36201275E+00
      0.87687900E-02      0.00000000E+00      0.42088775E+00
      0.65643790E-01      0.00000000E+00      0.42088775E+00
      0.12251879E+00      0.00000000E+00      0.42088775E+00
      0.17939379E+00      0.00000000E+00      0.42088775E+00
      0.23626879E+00      0.00000000E+00      0.42088775E+00
      0.29314379E+00      0.00000000E+00      0.42088775E+00
      0.35001879E+00      0.00000000E+00      0.42088775E+00
      0.40689379E+00      0.00000000E+00      0.42088775E+00
      0.46376879E+00      0.00000000E+00      0.42088775E+00
      0.87687900E-02      0.00000000E+00      0.47976275E+00
      0.65643790E-01      0.00000000E+00      0.47976275E+00
      0.12251879E+00      0.00000000E+00      0.47976275E+00
      0.17939379E+00      0.00000000E+00      0.47976275E+00
      0.23626879E+00      0.00000000E+00      0.47976275E+00
      0.29314379E+00      0.00000000E+00      0.47976275E+00
      0.35001879E+00      0.00000000E+00      0.47976275E+00
      0.40689379E+00      0.00000000E+00      0.47976275E+00
      0.46376879E+00      0.00000000E+00      0.47976275E+00
      0.00000000E+00     -0.30000000E-01      0.10000000E-01
[...]
POINT_DATA      9925
CELL_DATA     38427
SCALARS Resistivity(ohm.m) double 1
LOOKUP_TABLE default
            13.02476            22.09276            32.07469            28.87491            34.52926            34.55920            15.91936            29.04558            30.82805            15.22267            28.75144            21.92800            25.32199            34.54780            32.79460            12.28256            12.96852            22.99594            16.21675            21.59237            23.11910            12.35869            14.01693            32.66710            20.52491            25.84446            21.54696            24.89408            24.84672            28.40805            30.34245            34.24508            17.49524            32.63347            30.52116            24.37579            24.37253            13.70873            31.61536            21.57680            28.29249            25.12480            30.87158            13.98349            29.02519            26.64527             9.88359            33.25544            30.18385            34.78382            13.24958            18.67681            32.75150            30.06164            24.72348            32.15150            25.47355            18.66503            22.13841            28.24352            28.87897            14.77565            27.20363            29.76598            27.99936            15.27491            18.17131            28.11000            27.12463            27.10175            21.86458            25.41471            23.72326            32.01521            18.40223            20.97220            27.48944            15.35120            33.25133            32.13845            28.93953            34.15280            32.17968            21.46992            27.46259            27.23750            14.18358            25.85712            34.05856            23.82579            30.50663            20.23989            20.49221            18.32357            30.18279            23.08551            21.17827            15.29794            36.76689            26.82665            24.55979            13.66197            22.85520            36.57265            32.26260            34.52631            19.55554            15.85289            30.19941            22.26572            20.39296            23.03672            23.54398            24.76110            34.09706            25.16903            24.70490            22.42471            31.74585            23.66844            18.97628            24.86733            31.60986            14.40869            31.21465            27.59635            29.19996            21.57087            23.85017            12.52797            23.87769            30.16889            16.58176            31.40096             8.34958            20.21394             9.68881            10.56827            31.49148            23.82647            34.75269             8.76106            32.43364            22.33079            26.62645            26.80126            32.27803            32.16191             8.77334            15.35400            22.58750            22.11705            12.41317            30.95027            16.62149            20.23716            16.79517            12.42273            16.25293            26.77412            15.47736            24.19596            22.23342            22.33762            28.37729            23.74648            32.13045            33.16581            24.18823            27.62675            21.69566            34.61343            27.75076            15.28730            25.09806            33.57211            20.33348            11.12647             8.83461            21.84438            24.02702             8.84636            18.35170            19.27238            12.91753            15.66405            26.74405            36.61606            24.38796            24.53104            24.51206            25.58419            22.69540            26.08060            24.96723            15.21271            14.47022            34.59960            22.76538            29.54207            23.06626            13.68443            33.65176            21.35992            32.41847            15.76205            18.47364            30.38104            26.91590            24.65550            22.78723            32.05672            33.54073            11.99519            27.68311            18.10258            20.99364            34.63375            21.09370            18.31827            24.21863            13.29812            19.00055            32.08288            32.23234            24.00140            14.16321            20.62957            32.57018            15.70429            21.16693            19.77316            25.30973            14.98639            30.30549            27.35979            36.89650            34.38434            31.80986            23.97425            32.74506            19.82567            24.59738            31.91351            33.59778            18.94600            32.18314            34.61016            18.46234            29.28653            33.55891            14.61072            21.25166            11.66745            33.79297            31.34855            26.02424            25.15628            28.97198            18.37840            28.32301            23.23132            22.46859            12.65519            33.13960            26.01218            34.76233            30.63913            25.40005            19.13885            29.27334            25.63726            29.03613            23.44257            24.13892            12.06698            22.63142            11.94844            31.82127            19.76547            29.00534            27.25342            12.78666            22.72809            18.78439            22.08389            29.39204            12.71516            27.66390            34.13415            30.35183            21.96428            31.66397            33.13829            31.96649            32.12005            14.89723            19.61619            16.92721            32.02816            18.55494            19.37738            20.04517            31.60352            32.52196            15.48660            34.72839            34.01842            23.12171            30.20948            28.44061            27.32548            29.98934             8.94436            32.12194            33.46636            18.36759            23.13058            25.62347            33.47047            20.85582            20.39125            11.35825            12.57421            15.54757            22.67601            15.91680            24.66448            30.78320            20.65394            21.26038            32.81020            13.46163            19.77114            15.97576            20.58702            10.57730            32.55042            17.73638            12.38218            21.56063            29.58224            24.59375            27.76498            17.96754            28.05853             9.82328            21.36378            21.62611            33.41751            10.53163            31.45385            22.55674            19.05078            17.66447            23.94275            12.29889            16.16524            21.76846            30.79644            27.35237            11.27732            28.85967            10.99495            10.99368            34.73036            23.09539            17.13423            23.47921            32.57119            24.40047            23.01743            12.50176            31.15190            33.35718            23.17883            14.30570            28.13865            28.02830            22.96427            15.10205            15.99763            24.46631            21.65374            22.84202            31.43532            11.85135            18.80080            30.89708            32.52027             9.33308             8.75912            29.88016            33.32901            14.23238            20.54681            15.21240            26.52161            29.40558            25.13510            33.12817            23.10095            20.71739            22.89666            32.21907            19.19682            23.72265            10.08429            30.72449            19.58025            34.68868             8.86523            12.38277            33.22123            32.71981            28.29218            13.86308            17.51176            11.38696            33.06467            28.46753            23.32421             8.51831            30.46079            20.37042            12.25246            17.81879            27.31212            20.55406            12.33853            13.28525            19.95841            22.83977            30.70660            26.98009            34.41028            14.22303            16.81956            31.41833            24.00124            20.43085            21.73106            11.60930            31.30592            33.34394            32.64850            14.36260            19.79816            33.66991            12.76470            21.83972            28.60777            27.65985            25.96501            12.99926            18.15734            24.12974            27.12315            32.75387            32.99802            12.77452            21.57029            34.43587            31.15989            29.63255            31.89768            26.71100            14.04988            21.72467            15.77267            19.89398            30.51604            36.56587            15.57815            19.08395            20.61235            32.76092            19.64104            22.96768            31.91536            10.26701            28.70024            12.10741            35.41386            26.88241            23.51744            10.30364            34.63906             8.81012            27.69122            31.36964            33.54407            26.38248            17.56494            21.77193            25.10444            22.48581            24.74000            26.27135            34.39016            14.83040            17.10584            20.75543            32.86807            18.48917            33.72182            20.15515            16.36691            34.26465            31.78788            18.89307            28.12828            25.93081            24.89441            12.27003            11.99925             9.99857            15.07424            22.29639            31.17671            32.56772            27.83394            26.25016            22.37247            31.65715            32.11260            30.23713            18.80900            25.20697            30.11695            30.19538            19.37334            33.87612            32.39512            25.92954            32.10612            20.78925            33.25276            23.88163            18.90965            30.90627            30.33154            21.18886            13.56699            26.79013            20.21946            18.87975            33.18974            23.08329            25.39719            25.97760            12.51044            35.15272            29.28145            13.55129            34.70860            32.47183            36.70157            19.72805            30.41776            33.18706            22.05845            34.77392            19.67064            27.95099            33.13871            33.48292            24.96447             8.66230            24.69577            22.25840            29.51962            32.06243            33.85559            30.94019            11.61816            34.64608            24.48691            27.48974            13.48606            34.18986            28.45436            18.28233            24.26306            36.23055            33.52851            15.69994            12.47187            24.91172            33.54236            33.34468            10.95078            24.49444            34.46562            32.04110            12.44973            15.70494             9.40776            24.80760            11.79883            10.21353            19.40273            21.89300            27.29889            28.56605             8.74070            15.12589            25.15335            20.82447            34.61486            12.62095            23.08650            13.01465            32.38563            15.59236            20.94697            32.15571            23.72285            29.17637            32.24634            10.18442             8.54000            31.05862            18.02478            25.60915            12.60454            28.64248            22.55187            19.59206            34.11863            11.25154             8.71011            30.15790            25.92814            34.82450            32.07742            10.52518            16.94125            34.76309            14.73133            21.77175            12.56409            21.13061            26.74725            17.51012            11.86888            22.83997            32.67979            33.24664            22.03010            14.02931            26.95183            17.89460            28.54783            34.67252            24.04471            20.19562             8.53489            23.58321            19.66765            18.86369            10.77680            12.38689            20.72501            16.13034            24.76736            36.42753            27.51795            31.66452            32.67822            34.98285            19.69841            14.06151            31.74858            33.00647            22.95762            22.13886            33.65853            33.81525            19.39672            17.38456            26.41821            22.17927            10.67481            23.68461            23.14417            12.32489            13.71207            19.29540            25.75606            10.43126             9.75132            13.34468            10.39467            14.85795            22.94943            28.29232            18.99590            35.00228            24.85260            23.76668            19.76338            28.08318            23.10091            14.97913            24.78477            25.24774             9.88568            28.18785            16.63663            23.71082            31.86063             8.81176            27.20395            18.60354             9.49777            20.66699            31.03199            15.05186            34.67441            24.26258            26.45199            28.10169            19.21574            24.35894            30.17548            32.60058            17.15670            31.27364            26.16994            31.31972            28.49497            21.69773            33.78229            24.35599            24.74858            25.38684            36.82208            34.00236            32.78989            31.81063            16.41691            33.57848            14.05893            32.06110            10.18623            32.67686            12.55656            19.55021            26.24668            13.30933            15.42601            14.23076            19.86677            27.13339            26.36132            26.82234            22.14740            25.95246            23.27104            25.77280            33.51527            32.61253            26.72265            32.99886            30.78095            23.49753            21.62660            32.46518            31.49096            19.71606            24.18037            13.88075            32.17517            16.05998            12.67584            33.07200            23.16091            21.12560            24.09034            23.55043            17.79668            14.35350            20.25783            32.13941             8.90437            22.16940            23.01503            11.20789            30.59086            28.72021            25.12944            31.93551            22.52507            25.65645            33.07768            29.55389            28.27643            19.04732            10.20181            21.08576            12.50073            35.56744            11.96868            33.78361            27.91575            19.38915            24.22583            32.61950            34.36114            23.41301            22.02397            33.04807            33.86270            12.13058            24.79426            36.26143            27.06824            12.30621            31.96531            15.50317            24.90964            23.82041            34.23264            32.44193            33.66754            28.52450            16.00368            21.84337            32.69782            32.33057            19.69265            20.68220            24.93897            26.42587            22.06689            22.39498            34.16958            32.54086            20.62842            19.44479            28.98466            33.34509            31.90633            13.89993            18.30698            22.30080            13.30889            19.49543            33.29371            34.98488            19.15728            31.74260            21.63046            31.41718            16.94442            31.13796            31.54057            23.22148             8.97226            13.39741            24.28287            11.17802            26.54162            29.37476            34.71519            21.10101            31.57665            12.43329            31.71618            14.35808            16.94755            32.56727            12.42882            34.76654            24.01196            14.91297            31.10468            21.69230            18.80917            19.10992            15.80408            22.49529            11.11261            23.20010            16.85570            19.61165            23.20305            11.75929            28.48690            25.42475            35.99361             9.89422            32.45719            12.07380            22.17939            29.02353            32.86065            25.30746            24.65012            22.40026            14.16445            25.27984            22.06156            32.38990            15.34720            25.42769             8.84191            24.95100            33.84460            25.01805            22.61413            32.61182            34.04552            15.41029            33.46518            27.59590            14.04190            30.63128            19.75833            24.29291            20.47987            25.94112            12.27681            26.95909            15.35888            34.29003            27.52802            31.92743            10.52609            34.58788            13.46331            24.45352            19.25404            36.05309             9.50916            13.21183            25.67599            30.89492            30.95144             8.60904            23.59039             8.83145            22.89650            27.17798            33.28669            12.58085            18.50050            30.62725            32.30029            14.77349            31.06919            21.66445            15.28529            29.64931            32.21156            31.50813            29.58067            19.26397            32.29700            30.29464            13.50300            22.13852            34.17632            34.01314            32.07000            23.28926            12.68564            30.25464            24.08032            22.74670            14.40311            18.43646             9.00645            33.20563            32.05761            25.84394            25.92825            14.02389            30.41212            19.77525            18.60329            19.53449            10.08575            32.51966            10.13493            12.53379            16.11771            24.09995            11.19293            34.33462            20.55319            15.45572            14.76439            16.70918  