# vtk DataFile Version 3.0
Output from R3t
ASCII
DATASET UNSTRUCTURED_GRID
POINTS       8966 double
      0.50000000E-01     -0.50000000E-02      0.48500000E+00
      0.10000000E+00     -0.50000000E-02      0.48500000E+00
      0.15000000E+00     -0.50000000E-02      0.48500000E+00
      0.20000000E+00     -0.50000000E-02      0.48500000E+00
      0.25000000E+00     -0.50000000E-02      0.48500000E+00
      0.30000000E+00     -0.50000000E-02      0.48500000E+00
      0.35000000E+00     -0.50000000E-02      0.48500000E+00
      0.40000000E+00     -0.50000000E-02      0.48500000E+00
      0.50000000E-01      0.00000000E+00      0.42500000E+00
      0.10000000E+00      0.00000000E+00      0.42500000E+00
      0.15000000E+00      0.00000000E+00      0.42500000E+00
      0.20000000E+00      0.00000000E+00      0.42500000E+00
      0.25000000E+00      0.00000000E+00      0.42500000E+00
      0.30000000E+00      0.00000000E+00      0.42500000E+00
      0.35000000E+00      0.00000000E+00      0.42500000E+00
      0.40000000E+00      0.00000000E+00      0.42500000E+00
      0.50000000E-01      0.00000000E+00      0.37500000E+00
      0.10000000E+00      0.00000000E+00      0.37500000E+00
      0.15000000E+00      0.00000000E+00      0.37500000E+00
      0.20000000E+00      0.00000000E+00      0.37500000E+00
      0.25000000E+00      0.00000000E+00      0.37500000E+00
      0.30000000E+00      0.00000000E+00      0.37500000E+00
      0.35000000E+00      0.00000000E+00      0.37500000E+00
      0.40000000E+00      0.00000000E+00      0.37500000E+00
      0.50000000E-01      0.00000000E+00      0.32500000E+00
      0.10000000E+00      0.00000000E+00      0.32500000E+00
      0.15000000E+00      0.00000000E+00      0.32500000E+00
      0.20000000E+00      0.00000000E+00      0.32500000E+00
      0.25000000E+00      0.00000000E+00      0.32500000E+00
      0.30000000E+00      0.00000000E+00      0.32500000E+00
      0.35000000E+00      0.00000000E+00      0.32500000E+00
      0.40000000E+00      0.00000000E+00      0.32500000E+00
      0.50000000E-01      0.00000000E+00      0.27500000E+00
      0.10000000E+00      0.00000000E+00      0.27500000E+00
      0.15000000E+00      0.00000000E+00      0.27500000E+00
      0.20000000E+00      0.00000000E+00      0.27500000E+00
      0.25000000E+00      0.00000000E+00      0.27500000E+00
      0.30000000E+00      0.00000000E+00      0.27500000E+00
      0.35000000E+00      0.00000000E+00      0.27500000E+00
      0.40000000E+00      0.00000000E+00      0.27500000E+00
      0.50000000E-01      0.00000000E+00      0.22500000E+00
      0.10000000E+00      0.00000000E+00      0.22500000E+00
      0.15000000E+00      0.00000000E+00      0.22500000E+00
      0.20000000E+00      0.00000000E+00      0.22500000E+00
      0.25000000E+00      0.00000000E+00      0.22500000E+00
      0.30000000E+00      0.00000000E+00      0.22500000E+00
      0.35000000E+00      0.00000000E+00      0.22500000E+00
      0.40000000E+00      0.00000000E+00      0.22500000E+00
      0.50000000E-01      0.00000000E+00      0.17500000E+00
      0.10000000E+00      0.00000000E+00      0.17500000E+00
      0.15000000E+00      0.00000000E+00      0.17500000E+00
      0.20000000E+00      0.00000000E+00      0.17500000E+00
      0.25000000E+00      0.00000000E+00      0.17500000E+00
      0.30000000E+00      0.00000000E+00      0.17500000E+00
      0.35000000E+00      0.00000000E+00      0.17500000E+00
      0.40000000E+00      0.00000000E+00      0.17500000E+00
      0.50000000E-01      0.00000000E+00      0.12500000E+00
      0.10000000E+00      0.00000000E+00      0.12500000E+00
      0.15000000E+00      0.00000000E+00      0.12500000E+00
      0.20000000E+00      0.00000000E+00      0.12500000E+00
      0.25000000E+00      0.00000000E+00      0.12500000E+00
      0.30000000E+00      0.00000000E+00      0.12500000E+00
      0.35000000E+00      0.00000000E+00      0.12500000E+00
      0.40000000E+00      0.00000000E+00      0.12500000E+00
      0.50000000E-01      0.00000000E+00      0.75000000E-01
      0.10000000E+00      0.00000000E+00      0.75000000E-01
      0.15000000E+00      0.00000000E+00      0.75000000E-01
      0.20000000E+00      0.00000000E+00      0.75000000E-01
      0.25000000E+00      0.00000000E+00      0.75000000E-01
      0.30000000E+00      0.00000000E+00      0.75000000E-01
      0.35000000E+00      0.00000000E+00      0.75000000E-01
      0.40000000E+00      0.00000000E+00      0.75000000E-01
      0.00000000E+00      0.00000000E+00      0.00000000E+00
      0.45000000E+00      0.00000000E+00      0.00000000E+00
      0.00000000E+00      0.00000000E+00      0.50000000E+00
      0.45000000E+00      0.00000000E+00      0.50000000E+00
      0.00000000E+00     -0.30000000E-01      0.00000000E+00
      0.45000000E+00     -0.30000000E-01      0.00000000E+00
      0.00000000E+00     -0.30000000E-01      0.50000000E+00
      0.45000000E+00     -0.30000000E-01      0.50000000E+00
      0.11241060E-01      0.00000000E+00      0.11242680E-01
      0.64991060E-01      0.00000000E+00      0.11242680E-01
      0.11874106E+00      0.00000000E+00      0.11242680E-01
      0.17249106E+00      0.00000000E+00      0.11242680E-01
      0.22624106E+00      0.00000000E+00      0.11242680E-01
      0.27999106E+00      0.00000000E+00      0.11242680E-01
      0.33374106E+00      0.00000000E+00      0.11242680E-01
      0.38749106E+00      0.00000000E+00      0.11242680E-01
      0.44124106E+00      0.00000000E+00      0.11242680E-01
      0.11241060E-01      0.00000000E+00      0.64992680E-01
      0.64991060E-01      0.00000000E+00      0.64992680E-01
      0.11874106E+00      0.00000000E+00      0.64992680E-01
      0.17249106E+00      0.00000000E+00      0.64992680E-01
      0.22624106E+00      0.00000000E+00      0.64992680E-01
      0.27999106E+00      0.00000000E+00      0.64992680E-01
      0.33374106E+00      0.00000000E+00      0.64992680E-01
      0.38749106E+00      0.00000000E+00      0.64992680E-01
      0.44124106E+00      0.00000000E+00      0.64992680E-01
      0.11241060E-01      0.00000000E+00      0.11874268E+00
      0.64991060E-01      0.00000000E+00      0.11874268E+00
      0.11874106E+00      0.00000000E+00      0.11874268E+00
      0.17249106E+00      0.00000000E+00      0.11874268E+00
      0.22624106E+00      0.00000000E+00      0.11874268E+00
      0.27999106E+00      0.00000000E+00      0.11874268E+00
      0.33374106E+00      0.00000000E+00      0.11874268E+00
      0.38749106E+00      0.00000000E+00      0.11874268E+00
      0.44124106E+00      0.00000000E+00      0.11874268E+00
      0.11241060E-01      0.00000000E+00      0.17249268E+00
      0.64991060E-01      0.00000000E+00      0.17249268E+00
      0.11874106E+00      0.00000000E+00      0.17249268E+00
      0.17249106E+00      0.00000000E+00      0.17249268E+00
      0.22624106E+00      0.00000000E+00      0.17249268E+00
      0.27999106E+00      0.00000000E+00      0.17249268E+00
      0.33374106E+00      0.00000000E+00      0.17249268E+00
      0.38749106E+00      0.00000000E+00      0.17249268E+00
      0.44124106E+00      0.00000000E+00      0.17249268E+00
      0.11241060E-01      0.00000000E+00      0.22624268E+00
      0.64991060E-01      0.00000000E+00      0.22624268E+00
      0.11874106E+00      0.00000000E+00      0.22624268E+00
      0.17249106E+00      0.00000000E+00      0.22624268E+00
      0.22624106E+00      0.00000000E+00      0.22624268E+00
      0.27999106E+00      0.00000000E+00      0.22624268E+00
      0.33374106E+00      0.00000000E+00      0.22624268E+00
      0.38749106E+00      0.00000000E+00      0.22624268E+00
      0.44124106E+00      0.00000000E+00      0.22624268E+00
      0.11241060E-01      0.00000000E+00      0.27999268E+00
      0.64991060E-01      0.00000000E+00      0.27999268E+00
      0.11874106E+00      0.00000000E+00      0.27999268E+00
      0.17249106E+00      0.00000000E+00      0.27999268E+00
      0.22624106E+00      0.00000000E+00      0.27999268E+00
      0.27999106E+00      0.00000000E+00      0.27999268E+00
      0.33374106E+00      0.00000000E+00      0.27999268E+00
      0.38749106E+00      0.00000000E+00      0.27999268E+00
      0.44124106E+00      0.00000000E+00      0.27999268E+00
      0.11241060E-01      0.00000000E+00      0.33374268E+00
      0.64991060E-01      0.00000000E+00      0.33374268E+00
      0.11874106E+00      0.00000000E+00      0.33374268E+00
      0.17249106E+00      0.00000000E+00      0.33374268E+00
      0.22624106E+00      0.00000000E+00      0.33374268E+00
      0.27999106E+00      0.00000000E+00      0.33374268E+00
      0.33374106E+00      0.00000000E+00      0.33374268E+00
      0.38749106E+00      0.00000000E+00      0.33374268E+00
      0.44124106E+00      0.00000000E+00      0.33374268E+00
      0.11241060E-01      0.00000000E+00      0.38749268E+00
      0.64991060E-01      0.00000000E+00      0.38749268E+00
      0.11874106E+00      0.00000000E+00      0.38749268E+00
      0.17249106E+00      0.00000000E+00      0.38749268E+00
      0.22624106E+00      0.00000000E+00      0.38749268E+00
      0.27999106E+00      0.00000000E+00      0.38749268E+00
      0.33374106E+00      0.00000000E+00      0.38749268E+00
      0.38749106E+00      0.00000000E+00      0.38749268E+00
      0.44124106E+00      0.00000000E+00      0.38749268E+00
      0.11241060E-01      0.00000000E+00      0.44124268E+00
      0.64991060E-01      0.00000000E+00      0.44124268E+00
      0.11874106E+00      0.00000000E+00      0.44124268E+00
      0.17249106E+00      0.00000000E+00      0.44124268E+00
      0.22624106E+00      0.00000000E+00      0.44124268E+00
      0.27999106E+00      0.00000000E+00      0.44124268E+00
      0.33374106E+00      0.00000000E+00      0.44124268E+00
      0.38749106E+00      0.00000000E+00      0.44124268E+00
      0.44124106E+00      0.00000000E+00      0.44124268E+00
      0.11241060E-01      0.00000000E+00      0.49499268E+00
[...]
POINT_DATA      8966
CELL_DATA     34178
SCALARS Resistivity(ohm.m) double 1
LOOKUP_TABLE default
            16.98723            18.55758            29.32913            20.03617            24.37084            19.79559            31.37129            24.17443            34.49903            11.58681            19.94929            23.62954            29.71485            20.01494            28.02327            28.08781            42.34250            23.79717            10.65606            29.65361            34.91121            22.52786            34.74826             5.29410            18.11960            34.22990            34.57430            28.05403            34.73179            40.28207            32.48098             7.00925            26.34077            35.07243            41.08354            25.88518            16.62567            11.22060            27.78121            17.89501            32.92156            20.26839            10.69773            38.67355            15.21799            30.46132            22.76116            44.26305            15.15693            12.63586            27.92080            21.16939            23.61064            23.70884            13.28779            35.27703            12.53591            28.58008            24.16704             5.47099            25.85105            21.82518            24.17177            22.76937            34.63674            37.90708            37.84899            13.28458             7.77599             9.19694            39.16147            42.57819            11.69056            32.19300            34.48729            18.04811            43.97005            25.52676             9.55208            33.48824             4.88236            28.73678            24.01786            36.63131            33.42110            34.39693            22.54514            14.29749            11.59848            32.82773            24.39105            33.50862            34.48227            42.44438             7.15445            30.55453            43.19860            22.36598            35.45956            41.18386            14.60995            13.16179            28.23870            16.07117             5.68439            18.03385            18.88125            41.06476            13.38391            27.16568            31.18815            31.73945            27.83822            27.89686            36.41022             6.90967            31.69285            11.04838            23.70898            28.20407            26.38173            11.89177             8.30860            26.48194            25.31429            11.69028            29.97724            36.47718            33.89265            32.01814            41.21787            28.42520            18.39655            28.73158            28.16043            27.59081            38.81125            27.93290            11.81002            26.30999            10.01499            27.79650            11.46951            28.67980            13.58804            27.89407            21.24558             9.34269            29.69448            20.02829             8.09379            29.53090            20.31075            25.80472            30.87926            26.38464            32.45048            36.59365            29.85104            24.39725            12.79173            18.64303            25.00597            21.96460            34.61539            38.78774            40.57941            29.66775            39.23006            36.11687            11.03241            32.78804            40.15868            22.45870            35.78415            20.17000             6.61825            12.45925            34.53726            19.68477            41.94836            24.56646            32.89611            21.72488            22.29484            18.70675             4.65069            29.48410            22.97327            10.31696             4.58407            33.35244            31.87316            19.93403            21.79095            37.53147            29.41078            30.01939            20.94113            19.91964            44.89452            30.22852             8.48262            32.99065            18.48142            18.98744            27.95502            11.16827            21.02512            26.73872            38.88473            11.43837            28.24700            34.55987            22.48092            23.98082            22.70149            11.77875            31.34137            30.61436            28.40101            33.34849             5.99076            12.02808            24.56817            11.18819            39.60314            25.45899            26.13122            22.04529            15.28423            31.90819            29.50600             9.82257            39.30085            29.63559            41.44815            43.82517            36.25526            38.22149            15.46608            36.90120            37.25830            30.08893            31.33287             7.16275            37.02154            36.15290            28.31912            22.24634            29.74306            30.13764            24.85032            34.72142            17.61839            19.88953            20.58409            36.93569            27.75996            35.01534            23.57850            34.12232            13.95137             9.07020            26.22347            10.33686            27.59733            34.58131            24.41874            30.86912            19.43515            29.13318            13.99922            22.81987            37.22302            39.77863            24.32703            42.55259            42.57635            37.01467            33.69146            16.29437            30.47995            18.90989            20.70781            33.71845            22.76732            30.23693             5.60694            34.81976            29.91564            32.60333             8.75324            40.09254            24.29466            28.17820            18.92429            17.97246            39.91013            34.65621            29.89642            36.90931            41.50358            31.93741            20.25080            18.29023            21.03601            31.76128            28.62548            36.01876             4.65951            18.64941            29.34637            23.70959            27.13768            21.33124            36.95475            28.13036            28.38600            11.86464            38.31449            28.65431             6.39590            24.31596            21.09975            31.92976            38.74393            31.09687            10.43544            18.05332            34.97424            30.55746            22.72643            28.74216            39.15055            42.49149            25.88850            25.46420            18.94357            27.60944            23.46525            14.40280            43.01256            42.50538            20.86792            16.88476            28.58129            26.82768            23.52602            11.52356            26.14337            18.14519            33.56421            24.50417            11.41964            18.93908            20.70296            23.65513            24.94006             4.59436            37.70083            19.62542            13.36302            28.74555            22.53388            18.03482            35.97823            36.88855            27.93121            20.74286             6.05185            43.88733            10.97365            41.58294            33.22956            21.41577             8.76505            29.20700            32.83136            25.27789            14.83707            18.30071            28.79273            37.03835            22.80392            24.57955            27.47733            10.24553            31.97116            16.33114            28.56914            30.48075            35.95605            18.20963            33.57433            30.39239            30.52685            31.85302            30.42271            18.94884            27.63969            37.95783            22.01549            22.55188            20.16445            27.74766            26.14534            22.68719            39.39557            32.20522            18.73636            21.38356            26.37958             6.45909            43.28653             7.81323            22.17956            13.02653            34.69334            28.19994            30.41114            27.37352            28.20457            26.50154             5.13397            31.03894            43.03621            36.75358            31.43363            37.76813            34.37274            28.09099            34.06347            34.81888            37.31814            28.95837            11.13010            20.43175            35.45921            20.32166            41.89131            24.38961            35.77474            21.53268            21.15221            19.12615            36.79891            38.01455            29.59209            28.00763            22.75923            20.71260            36.18765            29.56869            35.08223            32.95094            36.64046            33.93971             8.55608            32.59511             5.00400            34.60382            22.58937            21.65648            28.30970            29.20163             6.14972            22.06152            20.41435            27.71099            10.04991             4.86128            22.36002            19.18381            43.57721            29.58108            25.14434             6.19866            34.88401            14.72424            33.38057            20.74115            13.25789            24.16213            14.80460            35.43960            13.43440            22.23285            34.16502             8.92275            31.82088            28.27335            30.53252            20.44153            27.61290            19.51646            35.63953            28.51396            23.46093            22.74929            35.75853            30.71229            30.32102            15.29424            19.25577            35.81970            31.44884            11.13022            34.02011            11.36680            39.48856            31.08100            37.26991            27.63443            36.92100            24.03044            35.40499            31.44875            11.96549             9.77392             6.82275            27.33487            35.49814            32.89188            21.90247            32.06026            12.54391            26.85485            20.04243            31.59542             7.18096            34.90550            22.36392            28.32472            17.87390            29.34813            20.61888            11.59682             7.46623             8.90892            29.49857            22.83075            27.80281            27.30114            34.76455            29.98819            11.01685            16.71117            27.14889            28.33429            37.88035            42.04981            38.18132            11.89643            30.89413            15.22805            19.67209            36.93206            32.21721            22.56180             5.68826            28.99241            34.16004            10.78595            23.06209            37.02342            23.13748            30.07937            28.27800            36.93851            34.38028            12.55900            11.73668            39.93685            26.47614            31.03061            40.73957            11.26421             7.97374            31.18801            21.85955            22.64825            12.45456            28.51833            27.88001            22.91210            23.72206            31.76511            29.44372            31.98158            38.48019            28.32034            35.75107            11.71090            21.03036            36.80390            21.14946            15.29704            30.40951            39.34947            35.16364            20.35793            30.08027            23.66372            23.64761            37.15174            30.77993            11.69694            16.27228            21.06531            31.54162             8.93167            35.14076            29.90616            15.44051            24.73741            29.67150            31.75811            29.41989            35.92988            19.02681            18.40917             7.45542            23.33978            27.74581            43.32122            24.06295            23.74220            20.17466            12.90238            22.47649            27.09122            24.21637            35.93969            39.96067             7.72926            11.39074            16.49087             4.91385            31.20479             6.12110            10.33606            22.16605            19.49602            28.17447            37.73142            25.68178            34.53631            24.33694            39.10999            27.63435             7.99119            22.46192            19.49259            28.43188            17.82571            20.02014            34.93017            33.44526            34.48092            11.51661            11.21029            38.33290            41.96093            31.14321            22.51184            11.45446            29.86330            29.60941            21.19170            32.18727            30.06284            21.76430             8.12722            38.16640            39.34228            31.41466            20.24989            30.83245            21.43874            11.10731            22.67086            20.45273            22.08966            23.03132            23.45012            29.57115            28.53542            25.85290            24.72597            21.95821            36.47168            31.94282            36.68095            18.64165             5.92836            31.60772            33.89478            27.76778            27.38543            12.24044            27.76463            28.83645            41.72614            19.99462            26.27439            32.85263            20.23267            22.53862            29.47448            15.19354            35.53509            25.07679            41.87488            21.97793            25.06705            24.33408            19.01212            34.82179            38.52125            11.09265            29.56704            10.82416            32.76557            12.14651            20.04370            14.17501            22.34801            29.69534            23.81047            35.87604            30.36797             5.10133            13.36508            24.35739            29.84528            29.71745            23.57763            38.81520            42.97882            27.63649            11.26527            34.88858            12.17536            26.36125            27.79135             7.10998            22.47445            17.89930            23.48782            32.50302            26.52093            24.13354             5.12764            23.33498            23.02260            25.84479            36.19635            18.78329            36.99648            20.77105            26.86827            28.27584            34.63556            33.06168            12.49510            20.03364            22.33310            33.59173            42.51463            41.03857            16.38079            18.86284             6.15368            20.72813            22.14406            27.57478            13.92204            34.24782            40.08647            36.98358            20.79710            28.01372            30.03410            21.34812            32.84485            44.01716            25.22278            22.28809            31.50348            24.30162            35.39037            39.20990            33.96099             9.25538            23.23926            28.52904            22.21925            24.24642            20.94128            12.78980            33.39586            29.50722            17.68067            21.55540            28.52321            24.31172            22.73887            17.96763            39.17986            37.98569            32.51822            22.52473            36.26926            35.91886            21.29058            32.10292            17.54724            28.37152             5.83940            11.04029            11.17894            12.84113            22.92475            22.65463            11.07630            12.79732            22.51572            21.57313            11.87909            28.54720            23.08293            42.74957            37.74769            33.60095            22.70191            36.08095            15.14161             7.03154            21.86037            19.40963            31.25460            41.10581            27.62072            29.68342            30.07995            27.21452            35.09736            24.50709             4.93446            19.10004            22.18907            14.82494            22.82360            41.30570            37.91673            34.80191            13.15799            17.16497            28.32447            31.87792            29.97169            21.22105             7.13789            27.30315            13.07537            35.52134            31.58465            42.95731            22.52037            13.95012            35.35526            11.37044            24.40990            10.47870            37.19558            37.26361            39.54129            28.33775            33.05877            35.27311            18.57861            22.14359            33.47869            37.16065            31.74616             7.92558            22.40936            30.98442            23.79874            29.18039            32.86352            37.01581            43.39446            28.22179            20.07030            33.94165            29.51874            39.26557            22.23188            22.95505            38.90972            26.73767            19.23218            21.30295            12.01746            30.35136            24.04666            43.98337            20.78091            25.25150            37.13996            31.14271            35.87143            43.97595            30.33407            30.53234             6.44694            27.62545            34.86644            23.68130            22.10692            43.20952            24.07199             7.42737            35.98226            23.11990            23.93249            36.39009            20.93576            29.85606            25.91438            34.56651            19.12645             9.37595            11.22981            39.37873            18.33055             7.22646            35.77408            12.59086            12.29879            11.41137             8.39943            11.93859            24.70012            12.81767            29.73318            30.41407            20.55512            28.42608             8.88374            30.12707            34.59917            10.94944            20.50949            34.17036            32.70849            18.69712            18.06112            30.57559            29.69082            26.92591            23.37704            34.37400            11.13415            34.82530            40.74721             5.45407            10.42920            27.42433             9.24394            28.20473            13.88778            20.13017            38.92848            37.59955            31.76963            30.25623            40.69921            30.67741            36.32273             7.63747            30.87622             7.99305            22.90534             4.66062            36.24584            32.68525            18.69506            18.54347            41.09520             5.05983            22.39318            22.29899  