# vtk DataFile Version 3.0
Output from R3t
ASCII
DATASET UNSTRUCTURED_GRID
POINTS       8652 double
      0.50000000E-01     -0.50000000E-02      0.48500000E+00
      0.10000000E+00     -0.50000000E-02      0.48500000E+00
      0.15000000E+00     -0.50000000E-02      0.48500000E+00
      0.20000000E+00     -0.50000000E-02      0.48500000E+00
      0.25000000E+00     -0.50000000E-02      0.48500000E+00
      0.30000000E+00     -0.50000000E-02      0.48500000E+00
      0.35000000E+00     -0.50000000E-02      0.48500000E+00
      0.40000000E+00     -0.50000000E-02      0.48500000E+00
      0.50000000E-01      0.00000000E+00      0.42500000E+00
      0.10000000E+00      0.00000000E+00      0.42500000E+00
      0.15000000E+00      0.00000000E+00      0.42500000E+00
      0.20000000E+00      0.00000000E+00      0.42500000E+00
      0.25000000E+00      0.00000000E+00      0.42500000E+00
      0.30000000E+00      0.00000000E+00      0.42500000E+00
      0.35000000E+00      0.00000000E+00      0.42500000E+00
      0.40000000E+00      0.00000000E+00      0.42500000E+00
      0.50000000E-01      0.00000000E+00      0.37500000E+00
      0.10000000E+00      0.00000000E+00      0.37500000E+00
      0.15000000E+00      0.00000000E+00      0.37500000E+00
      0.20000000E+00      0.00000000E+00      0.37500000E+00
      0.25000000E+00      0.00000000E+00      0.37500000E+00
      0.30000000E+00      0.00000000E+00      0.37500000E+00
      0.35000000E+00      0.00000000E+00      0.37500000E+00
      0.40000000E+00      0.00000000E+00      0.37500000E+00
      0.50000000E-01      0.00000000E+00      0.32500000E+00
      0.10000000E+00      0.00000000E+00      0.32500000E+00
      0.15000000E+00      0.00000000E+00      0.32500000E+00
      0.20000000E+00      0.00000000E+00      0.32500000E+00
      0.25000000E+00      0.00000000E+00      0.32500000E+00
      0.30000000E+00      0.00000000E+00      0.32500000E+00
      0.35000000E+00      0.00000000E+00      0.32500000E+00
      0.40000000E+00      0.00000000E+00      0.32500000E+00
      0.50000000E-01      0.00000000E+00      0.27500000E+00
      0.10000000E+00      0.00000000E+00      0.27500000E+00
      0.15000000E+00      0.00000000E+00      0.27500000E+00
      0.20000000E+00      0.00000000E+00      0.27500000E+00
      0.25000000E+00      0.00000000E+00      0.27500000E+00
      0.30000000E+00      0.00000000E+00      0.27500000E+00
      0.35000000E+00      0.00000000E+00      0.27500000E+00
      0.40000000E+00      0.00000000E+00      0.27500000E+00
      0.50000000E-01      0.00000000E+00      0.22500000E+00
      0.10000000E+00      0.00000000E+00      0.22500000E+00
      0.15000000E+00      0.00000000E+00      0.22500000E+00
      0.20000000E+00      0.00000000E+00      0.22500000E+00
      0.25000000E+00      0.00000000E+00      0.22500000E+00
      0.30000000E+00      0.00000000E+00      0.22500000E+00
      0.35000000E+00      0.00000000E+00      0.22500000E+00
      0.40000000E+00      0.00000000E+00      0.22500000E+00
      0.50000000E-01      0.00000000E+00      0.17500000E+00
      0.10000000E+00      0.00000000E+00      0.17500000E+00
      0.15000000E+00      0.00000000E+00      0.17500000E+00
      0.20000000E+00      0.00000000E+00      0.17500000E+00
      0.50000000E-01      0.00000000E+00      0.12500000E+00
      0.10000000E+00      0.00000000E+00      0.12500000E+00
      0.15000000E+00      0.00000000E+00      0.12500000E+00
      0.20000000E+00      0.00000000E+00      0.12500000E+00
      0.25000000E+00      0.00000000E+00      0.12500000E+00
      0.30000000E+00      0.00000000E+00      0.12500000E+00
      0.35000000E+00      0.00000000E+00      0.12500000E+00
      0.40000000E+00      0.00000000E+00      0.12500000E+00
      0.50000000E-01      0.00000000E+00      0.75000000E-01
      0.10000000E+00      0.00000000E+00      0.75000000E-01
      0.15000000E+00      0.00000000E+00      0.75000000E-01
      0.20000000E+00      0.00000000E+00      0.75000000E-01
      0.25000000E+00      0.00000000E+00      0.75000000E-01
      0.30000000E+00      0.00000000E+00      0.75000000E-01
      0.35000000E+00      0.00000000E+00      0.75000000E-01
      0.40000000E+00      0.00000000E+00      0.75000000E-01
      0.00000000E+00      0.00000000E+00      0.00000000E+00
      0.45000000E+00      0.00000000E+00      0.00000000E+00
      0.00000000E+00      0.00000000E+00      0.50000000E+00
      0.45000000E+00      0.00000000E+00      0.50000000E+00
      0.00000000E+00     -0.30000000E-01      0.00000000E+00
      0.45000000E+00     -0.30000000E-01      0.00000000E+00
      0.00000000E+00     -0.30000000E-01      0.50000000E+00
      0.45000000E+00     -0.30000000E-01      0.50000000E+00
      0.00000000E+00     -0.30000000E-01      0.10000000E-01
      0.00000000E+00     -0.30000000E-01      0.20000000E-01
      0.00000000E+00     -0.30000000E-01      0.30000000E-01
      0.00000000E+00     -0.30000000E-01      0.40000000E-01
      0.00000000E+00     -0.30000000E-01      0.50000000E-01
      0.00000000E+00     -0.30000000E-01      0.60000000E-01
      0.00000000E+00     -0.30000000E-01      0.70000000E-01
      0.00000000E+00     -0.30000000E-01      0.80000000E-01
      0.00000000E+00     -0.30000000E-01      0.90000000E-01
      0.00000000E+00     -0.30000000E-01      0.10000000E+00
      0.00000000E+00     -0.30000000E-01      0.11000000E+00
      0.00000000E+00     -0.30000000E-01      0.12000000E+00
      0.00000000E+00     -0.30000000E-01      0.13000000E+00
      0.00000000E+00     -0.30000000E-01      0.14000000E+00
      0.00000000E+00     -0.30000000E-01      0.15000000E+00
      0.00000000E+00     -0.30000000E-01      0.16000000E+00
      0.00000000E+00     -0.30000000E-01      0.17000000E+00
      0.00000000E+00     -0.30000000E-01      0.18000000E+00
      0.00000000E+00     -0.30000000E-01      0.19000000E+00
      0.00000000E+00     -0.30000000E-01      0.20000000E+00
      0.00000000E+00     -0.30000000E-01      0.21000000E+00
      0.00000000E+00     -0.30000000E-01      0.22000000E+00
      0.00000000E+00     -0.30000000E-01      0.23000000E+00
      0.00000000E+00     -0.30000000E-01      0.24000000E+00
      0.00000000E+00     -0.30000000E-01      0.25000000E+00
      0.00000000E+00     -0.30000000E-01      0.26000000E+00
      0.00000000E+00     -0.30000000E-01      0.27000000E+00
      0.00000000E+00     -0.30000000E-01      0.28000000E+00
      0.00000000E+00     -0.30000000E-01      0.29000000E+00
      0.00000000E+00     -0.30000000E-01      0.30000000E+00
      0.00000000E+00     -0.30000000E-01      0.31000000E+00
      0.00000000E+00     -0.30000000E-01      0.32000000E+00
      0.00000000E+00     -0.30000000E-01      0.33000000E+00
      0.00000000E+00     -0.30000000E-01      0.34000000E+00
      0.00000000E+00     -0.30000000E-01      0.35000000E+00
      0.00000000E+00     -0.30000000E-01      0.36000000E+00
      0.00000000E+00     -0.30000000E-01      0.37000000E+00
      0.00000000E+00     -0.30000000E-01      0.38000000E+00
      0.00000000E+00     -0.30000000E-01      0.39000000E+00
      0.00000000E+00     -0.30000000E-01      0.40000000E+00
      0.00000000E+00     -0.30000000E-01      0.41000000E+00
      0.00000000E+00     -0.30000000E-01      0.42000000E+00
      0.00000000E+00     -0.30000000E-01      0.43000000E+00
      0.00000000E+00     -0.30000000E-01      0.44000000E+00
      0.00000000E+00     -0.30000000E-01      0.45000000E+00
      0.00000000E+00     -0.30000000E-01      0.46000000E+00
      0.00000000E+00     -0.30000000E-01      0.47000000E+00
      0.00000000E+00     -0.30000000E-01      0.48000000E+00
      0.00000000E+00     -0.30000000E-01      0.49000000E+00
      0.10000000E-01     -0.30000000E-01      0.50000000E+00
      0.20000000E-01     -0.30000000E-01      0.50000000E+00
      0.30000000E-01     -0.30000000E-01      0.50000000E+00
      0.40000000E-01     -0.30000000E-01      0.50000000E+00
      0.50000000E-01     -0.30000000E-01      0.50000000E+00
      0.60000000E-01     -0.30000000E-01      0.50000000E+00
      0.70000000E-01     -0.30000000E-01      0.50000000E+00
      0.80000000E-01     -0.30000000E-01      0.50000000E+00
      0.90000000E-01     -0.30000000E-01      0.50000000E+00
      0.10000000E+00     -0.30000000E-01      0.50000000E+00
      0.11000000E+00     -0.30000000E-01      0.50000000E+00
      0.12000000E+00     -0.30000000E-01      0.50000000E+00
      0.13000000E+00     -0.30000000E-01      0.50000000E+00
      0.14000000E+00     -0.30000000E-01      0.50000000E+00
      0.15000000E+00     -0.30000000E-01      0.50000000E+00
      0.16000000E+00     -0.30000000E-01      0.50000000E+00
      0.17000000E+00     -0.30000000E-01      0.50000000E+00
      0.18000000E+00     -0.30000000E-01      0.50000000E+00
      0.19000000E+00     -0.30000000E-01      0.50000000E+00
      0.20000000E+00     -0.30000000E-01      0.50000000E+00
      0.21000000E+00     -0.30000000E-01      0.50000000E+00
      0.22000000E+00     -0.30000000E-01      0.50000000E+00
      0.23000000E+00     -0.30000000E-01      0.50000000E+00
      0.24000000E+00     -0.30000000E-01      0.50000000E+00
      0.25000000E+00     -0.30000000E-01      0.50000000E+00
      0.26000000E+00     -0.30000000E-01      0.50000000E+00
      0.27000000E+00     -0.30000000E-01      0.50000000E+00
      0.28000000E+00     -0.30000000E-01      0.50000000E+00
      0.29000000E+00     -0.30000000E-01      0.50000000E+00
      0.30000000E+00     -0.30000000E-01      0.50000000E+00
      0.31000000E+00     -0.30000000E-01      0.50000000E+00
      0.32000000E+00     -0.30000000E-01      0.50000000E+00
      0.33000000E+00     -0.30000000E-01      0.50000000E+00
      0.34000000E+00     -0.30000000E-01      0.50000000E+00
      0.35000000E+00     -0.30000000E-01      0.50000000E+00
      0.36000000E+00     -0.30000000E-01      0.50000000E+00
      0.37000000E+00     -0.30000000E-01      0.50000000E+00
[...]
POINT_DATA      8652
CELL_DATA     32557
SCALARS Resistivity(ohm.m) double 1
LOOKUP_TABLE default
            22.54685            29.45284            21.63401            31.22692            23.21208            39.50319            33.28846            31.22051            26.50755            34.83718            33.47158            36.13012            44.62288            25.28414            19.92361            21.77574            16.53634            39.07169            30.32948            32.14449            34.53151            23.50731            14.55155            34.66245            27.00740            27.35801            27.57095            29.07533            36.68049            15.31658            27.54438            27.67833            23.21171            29.34647            28.03210            26.52673            18.61972            42.27091            21.75984            28.67797            23.89482            31.91911            28.08273            22.45896            29.56809            32.23769            27.06246            28.55436            32.52905            33.99383            20.50898            42.29005            36.23123            30.07442            30.40155            23.94599            35.15108            35.28246            41.03000            22.84054            40.97594            16.35654            23.60656            25.13536            42.08607            27.87864            37.33904            29.12728            38.72531            30.17344            24.18291            17.34061            23.66814            36.89785            36.91601            22.89182            35.53146            27.78524            16.26585            17.31494            32.19782            30.56261            28.35891            28.36371            26.34413            23.95162            32.98625            37.57460            28.52146            42.58307            24.58277            31.39808            34.77648            27.97786            32.84956            28.17237            40.16560            28.05230            19.97927            35.82590            33.67886            18.96260            32.93528            31.36009            33.41270            28.06708            27.91768            26.45580            44.67658            20.70747            42.88719            31.29237            30.98275            30.79375            30.13267            27.91074            23.32399            36.13053            19.58434            29.58119            29.93436            28.39836            28.60668            35.50938            29.72746            34.26174            33.97363            29.70694            24.18662            26.25354            32.00726            24.27905            26.10807            30.96847            42.92882            22.00123            28.59543            35.84313            22.90282            21.67696            28.74682            36.57589            32.27917            26.21982            28.90470            42.49296            29.34723            17.72384            22.54589            14.11688            22.41574            16.24308            24.18375            30.88798            29.18247            17.85434            21.42064            37.22445            28.27258            41.68494            21.50797            31.55150            19.16503            40.93945            33.56737            25.34925            35.08107            25.96693            33.24582            22.12493            28.60311            37.43151            27.95817            22.97980            37.55383            28.13098            28.20967            27.39195            31.64094            29.59131            26.25645            30.92873            33.35214            40.62478            33.20882            38.03433            24.57853            30.70274            31.42422            30.16213            24.51090            15.94199            28.35770            27.21674            37.24781            35.14452            28.48243            37.66101            31.35672            27.89048            19.75620            40.45605            27.51181            31.15330            21.73453            29.04137            27.88473            34.48398            29.53968            26.43736            30.03466            28.57530            31.95487            28.87120            25.90103            29.42867            27.92238            34.07657            28.17507            22.34114            27.02027            37.40292            22.40830            37.38906            33.90667            29.15637            42.36792            31.59906            30.00341            30.75305            34.37550            26.48671            22.31362            29.15772            20.15284            26.97642            35.08595            32.08845            33.61102            22.49793            28.89508            31.20236            20.96961            22.99061            27.83736            36.34544            30.69446            32.61064            32.26579            30.80060            27.85977            33.34780            22.45000            20.79132            32.20063            31.26621            33.25179            22.51516            32.97712            31.76628            20.04300            25.43785            21.07771            24.01419            28.57219            29.32530            31.43640            18.88318            17.96710            31.47234            23.89075            24.99822            21.79801            37.76301            19.05106            30.18947            47.27500            23.72093            29.64091            25.30919            35.90006            30.26889            26.86218            28.20305            18.26592            24.39271            25.94267            22.48533            29.76746            34.68838            33.24106            26.65460            21.24950            30.58652            34.30017            33.23564            34.59912            27.41564            22.22842            24.24596            24.36763            22.20041            40.05344            26.61533            17.48968            20.43898            23.69483            17.52012            34.05567            48.94478            16.11386            39.74870            21.90760            29.80934            40.22845            31.12198            23.69441            30.63274            35.78558            39.62212            31.64568            32.22313            30.15122            27.59085            30.39015            34.32221            28.26500            23.42917            26.24545            32.61843            25.81470            27.48935            25.68860            33.62886            40.40100            32.12367            22.17016            26.50311            31.87271            39.74601            25.10884            30.73212            37.13292            38.90045            43.96822            28.30814            40.74320            23.86277            35.81077            27.44413            25.65127            34.40132            29.27065            28.11408            25.54852            32.81561            27.25972            25.87537            18.61697            14.85107            35.62195            30.65338            40.29472            28.68332            34.05592            40.75586            29.88868            31.00182            43.73653            18.57423            40.57626            27.36882            21.15380            31.82586            28.05593            27.70178            27.33103            22.35118            31.97922            21.83018            26.72923            26.03734            38.99397            14.34676            25.98728            24.93268            21.89337            27.40173            29.00371            31.51156            43.68174            47.24067            33.39151            34.92034            23.21975            29.31212            39.13744            36.88216            23.87746            23.64476            27.72397            26.62953            31.21326            35.28146            36.11110            39.99592            35.38492            35.12271            28.68411            29.17714            26.41397            27.41777            27.98790            29.45909            13.31308            32.70541            23.03210            26.60202            26.17810            33.09002            22.65061            35.96255            23.41502            36.19434            33.37968            28.80722            28.65281            26.32851            29.72009            44.25047            26.36597            30.56621            27.41594            31.75082            38.39186            29.13578            35.06801            41.60975            22.64725            29.91617            31.77479            30.22339            47.39280            36.62667            28.07582            29.94686            23.53566            30.02535            26.32627            46.69587            39.84149            35.12237            46.94451            30.03575            34.03684            26.01994            28.69944            42.89858            37.48766            27.41676            28.07785            29.83717            28.63573            33.56318            28.43279            33.43397            29.28631            25.22531            31.19403            35.22849            19.53126            28.19141            31.31523            28.31854            24.61839            30.49164            30.32016            22.35354            37.68581            30.21648            43.78100            28.82848            31.41116            22.36112            29.46628            26.13114            30.29968            30.12834            24.35349            23.52209            33.85193            27.11505            32.58283            32.95654            15.16389            28.70528            25.91275            34.01699            39.17744            29.69891            26.46737            27.10920            42.12231            30.67972            31.55066            26.98844            35.00490            34.10605            28.73547            36.29465            25.19093            40.15226            24.33536            30.25648            29.54811            29.84133            24.04230            31.60040            30.70681            23.75016            23.78599            23.98938            26.66256            31.65826            43.10103            28.35549            26.50929            37.96809            30.08180            40.24629            29.58846            32.25649            28.24072            36.85746            28.35271            28.30709            31.19428            30.05053            43.10389            36.82450            32.51287            29.06722            25.13732            23.15269            29.94264            25.93796            23.53181            19.61313            31.23695            27.19138            32.32602            28.37671            36.16205            32.45462            23.44143            17.51183            25.99156            32.52789            24.82042            17.82607            35.61818            25.13649            26.92100            30.57888            22.72723            39.01709            22.45128            26.31383            21.57518            29.71518            29.33372            32.08634            33.07279            20.20581            14.41722            31.28125            15.61292            26.33799            28.01425            27.39455            22.60336            27.56834            13.94748            33.67826            19.67733            34.77906            13.35372            25.81897            31.87873            30.39060            31.95262            24.90792            39.43710            28.50400            23.32912            29.16691            25.39047            30.86159            31.56559            30.06195            26.99412            27.85585            30.50249            20.88951            37.27414            23.75415            23.76073            30.58883            33.00439            27.80399            40.24090            16.14707            23.82698            31.27062            31.22780            27.26163            36.45588            27.97153            31.85711            27.62518            35.11267            25.66158            28.34641            29.97363            42.22709            21.92461            28.62174            30.79012            25.69031            37.54578            36.85192            32.20273            31.13418            29.04888            34.03830            28.94311            32.89594            25.27491            29.78960            28.62955            31.96373            30.45730            33.59467            22.02290            30.43458            20.01508            26.91626            41.65333            26.84024            25.66502            36.20059            29.54457            21.27594            35.37045            27.19025            28.42894            23.30121            33.38045            27.73108            31.70925            28.82891            25.86982            28.02270            35.72055            28.39633            25.21407            44.00567            34.87950            30.11039            26.97458            29.70856            16.74030            33.64872            42.40117            29.22353            13.86989            27.03985            34.20888            37.20972            30.00793            31.11758            36.34693            36.96531            30.40902            27.01487            24.89184            32.59184            24.95330            43.88077            34.56318            32.46970            43.92281            27.19540            29.78810            26.63956            36.40728            37.48936            31.21929            28.28281            34.36347            21.80562            31.43653            40.56219            27.41442            29.76123            33.20409            28.42561            24.05675            37.24957            19.71754            38.20750            18.56890            25.32367            44.57737            30.52195            30.56222            34.26541            31.31195            44.15365            23.38312            35.54242            22.04796            28.93024            27.41089            27.19297            26.05678            25.66480            32.32539            28.75421            35.57312            32.35356            35.65098            21.35670            37.23004            21.73397            32.75587            32.89618            27.61055            28.80736            32.81958            30.22751            31.48254            40.85140            23.68870            20.86298            29.44983            13.37339            31.94302            28.21381            15.06356            23.71438            24.02552            20.53666            31.22751            30.89555            21.28469            27.54503            27.23760            24.74845            15.33369            23.47536            39.78886            33.14348            41.03825            39.23079            37.63031            32.10083            17.85854            30.62110            28.08370            22.40807            26.50344            27.40235            37.13720            28.35595            34.70764            30.53705            28.94150            30.74146            25.88082            25.89092            30.44580            32.79480            33.48882            29.00492            24.16934            20.89576            40.24112            24.98272            35.26289            32.11109            32.85091            28.25331            31.99860            25.11586            29.90368            33.07035            34.58539            26.83214            30.04404            26.33286            35.03921            26.76385            30.28287            25.10958            30.23106            29.05425            24.96538            23.38970            15.98586            29.91697            25.08427            19.04928            22.52769            43.16161            25.38491            33.43780            23.62138            33.54739            30.11934            24.22888            22.77488            35.13204            30.61437            32.64589            26.59360            21.39370            24.65999            28.43292            28.42152            23.82204            20.52849            22.26573            23.84825            32.42114            28.52142            31.70062            26.88828            44.44452            28.03574            27.81445            27.53147            34.17805            21.34198            35.86273            23.96809            26.23017            34.96961            27.74941            34.03721            28.87068            31.48931            42.30639            35.07421            31.27599            38.45960            25.17802            29.87811            31.41705            24.09312            19.12730            34.85471            24.90765            24.69366            15.78759            33.44463            36.04570            29.19960            31.76645            43.91724            29.88827            23.18636            19.77690            43.29355            28.95353            37.81725            26.32307            34.44935            32.67472            18.53608            19.73918            37.41501            30.62225            31.71348            33.81606            28.73747            25.23877            35.11414            20.78940            32.17262            23.05503            34.56512            22.53668            22.38572            24.49182            32.24446            31.50073            24.71839            26.42678            30.04735            23.62537            38.25461            24.74976            31.33617            37.34667            30.93209            35.28405            34.42983            36.17800            30.18681            19.01830            20.27881            24.99600            23.15130            30.24962            22.54754            18.97574            37.52491            29.00311            19.70029            21.97134            21.40070            23.80527            34.87302            27.56544            37.29050            34.05188            39.57951            36.62460            30.52765            43.69552            29.88845            25.07856            32.03609            30.06199            32.84666            24.98999            31.30556            32.60629            31.73045            36.28643            29.13585            36.96353            37.28617            29.02628            17.85268            29.15460            31.66684            24.32657            30.09306            31.92286            17.92578            37.00997            28.23763            27.97667            31.92693            42.27828            26.76625            27.80240            31.31843            30.83905            17.99818            33.05376            30.99839            38.08016            23.78214            23.36935            21.45572            29.07417            37.33374            33.22123            29.49685            25.42390            33.19750            27.78999            39.47954            21.04314            14.35660            32.30182            40.33357            37.70533            27.76461            28.69030            23.33429            25.60560            33.53410            31.85013            28.49745            35.06470            32.39845            43.43276            27.98274            28.30733            34.18194            21.83147  