# vtk DataFile Version 3.0
Output from R3t
ASCII
DATASET UNSTRUCTURED_GRID
POINTS       8652 double
      0.50000000E-01     -0.50000000E-02      0.48500000E+00
      0.10000000E+00     -0.50000000E-02      0.48500000E+00
      0.15000000E+00     -0.50000000E-02      0.48500000E+00
      0.20000000E+00     -0.50000000E-02      0.48500000E+00
      0.25000000E+00     -0.50000000E-02      0.48500000E+00
      0.30000000E+00     -0.50000000E-02      0.48500000E+00
      0.35000000E+00     -0.50000000E-02      0.48500000E+00
      0.40000000E+00     -0.50000000E-02      0.48500000E+00
      0.50000000E-01      0.00000000E+00      0.42500000E+00
      0.10000000E+00      0.00000000E+00      0.42500000E+00
      0.15000000E+00      0.00000000E+00      0.42500000E+00
      0.20000000E+00      0.00000000E+00      0.42500000E+00
      0.25000000E+00      0.00000000E+00      0.42500000E+00
      0.30000000E+00      0.00000000E+00      0.42500000E+00
      0.35000000E+00      0.00000000E+00      0.42500000E+00
      0.40000000E+00      0.00000000E+00      0.42500000E+00
      0.50000000E-01      0.00000000E+00      0.37500000E+00
      0.10000000E+00      0.00000000E+00      0.37500000E+00
      0.15000000E+00      0.00000000E+00      0.37500000E+00
      0.20000000E+00      0.00000000E+00      0.37500000E+00
      0.25000000E+00      0.00000000E+00      0.37500000E+00
      0.30000000E+00      0.00000000E+00      0.37500000E+00
      0.35000000E+00      0.00000000E+00      0.37500000E+00
      0.40000000E+00      0.00000000E+00      0.37500000E+00
      0.50000000E-01      0.00000000E+00      0.32500000E+00
      0.10000000E+00      0.00000000E+00      0.32500000E+00
      0.15000000E+00      0.00000000E+00      0.32500000E+00
      0.20000000E+00      0.00000000E+00      0.32500000E+00
      0.25000000E+00      0.00000000E+00      0.32500000E+00
      0.30000000E+00      0.00000000E+00      0.32500000E+00
      0.35000000E+00      0.00000000E+00      0.32500000E+00
      0.40000000E+00      0.00000000E+00      0.32500000E+00
      0.50000000E-01      0.00000000E+00      0.27500000E+00
      0.10000000E+00      0.00000000E+00      0.27500000E+00
      0.15000000E+00      0.00000000E+00      0.27500000E+00
      0.20000000E+00      0.00000000E+00      0.27500000E+00
      0.25000000E+00      0.00000000E+00      0.27500000E+00
      0.30000000E+00      0.00000000E+00      0.27500000E+00
      0.35000000E+00      0.00000000E+00      0.27500000E+00
      0.40000000E+00      0.00000000E+00      0.27500000E+00
      0.50000000E-01      0.00000000E+00      0.22500000E+00
      0.10000000E+00      0.00000000E+00      0.22500000E+00
      0.15000000E+00      0.00000000E+00      0.22500000E+00
      0.20000000E+00      0.00000000E+00      0.22500000E+00
      0.25000000E+00      0.00000000E+00      0.22500000E+00
      0.30000000E+00      0.00000000E+00      0.22500000E+00
      0.35000000E+00      0.00000000E+00      0.22500000E+00
      0.40000000E+00      0.00000000E+00      0.22500000E+00
      0.50000000E-01      0.00000000E+00      0.17500000E+00
      0.10000000E+00      0.00000000E+00      0.17500000E+00
      0.15000000E+00      0.00000000E+00      0.17500000E+00
      0.20000000E+00      0.00000000E+00      0.17500000E+00
      0.50000000E-01      0.00000000E+00      0.12500000E+00
      0.10000000E+00      0.00000000E+00      0.12500000E+00
      0.15000000E+00      0.00000000E+00      0.12500000E+00
      0.20000000E+00      0.00000000E+00      0.12500000E+00
      0.25000000E+00      0.00000000E+00      0.12500000E+00
      0.30000000E+00      0.00000000E+00      0.12500000E+00
      0.35000000E+00      0.00000000E+00      0.12500000E+00
      0.40000000E+00      0.00000000E+00      0.12500000E+00
      0.50000000E-01      0.00000000E+00      0.75000000E-01
      0.10000000E+00      0.00000000E+00      0.75000000E-01
      0.15000000E+00      0.00000000E+00      0.75000000E-01
      0.20000000E+00      0.00000000E+00      0.75000000E-01
      0.25000000E+00      0.00000000E+00      0.75000000E-01
      0.30000000E+00      0.00000000E+00      0.75000000E-01
      0.35000000E+00      0.00000000E+00      0.75000000E-01
      0.40000000E+00      0.00000000E+00      0.75000000E-01
      0.00000000E+00      0.00000000E+00      0.00000000E+00
      0.45000000E+00      0.00000000E+00      0.00000000E+00
      0.00000000E+00      0.00000000E+00      0.50000000E+00
      0.45000000E+00      0.00000000E+00      0.50000000E+00
      0.00000000E+00     -0.30000000E-01      0.00000000E+00
      0.45000000E+00     -0.30000000E-01      0.00000000E+00
      0.00000000E+00     -0.30000000E-01      0.50000000E+00
      0.45000000E+00     -0.30000000E-01      0.50000000E+00
      0.00000000E+00     -0.30000000E-01      0.10000000E-01
      0.00000000E+00     -0.30000000E-01      0.20000000E-01
      0.00000000E+00     -0.30000000E-01      0.30000000E-01
      0.00000000E+00     -0.30000000E-01      0.40000000E-01
      0.00000000E+00     -0.30000000E-01      0.50000000E-01
      0.00000000E+00     -0.30000000E-01      0.60000000E-01
      0.00000000E+00     -0.30000000E-01      0.70000000E-01
      0.00000000E+00     -0.30000000E-01      0.80000000E-01
      0.00000000E+00     -0.30000000E-01      0.90000000E-01
      0.00000000E+00     -0.30000000E-01      0.10000000E+00
      0.00000000E+00     -0.30000000E-01      0.11000000E+00
      0.00000000E+00     -0.30000000E-01      0.12000000E+00
      0.00000000E+00     -0.30000000E-01      0.13000000E+00
      0.00000000E+00     -0.30000000E-01      0.14000000E+00
      0.00000000E+00     -0.30000000E-01      0.15000000E+00
      0.00000000E+00     -0.30000000E-01      0.16000000E+00
      0.00000000E+00     -0.30000000E-01      0.17000000E+00
      0.00000000E+00     -0.30000000E-01      0.18000000E+00
      0.00000000E+00     -0.30000000E-01      0.19000000E+00
      0.00000000E+00     -0.30000000E-01      0.20000000E+00
      0.00000000E+00     -0.30000000E-01      0.21000000E+00
      0.00000000E+00     -0.30000000E-01      0.22000000E+00
      0.00000000E+00     -0.30000000E-01      0.23000000E+00
      0.00000000E+00     -0.30000000E-01      0.24000000E+00
      0.00000000E+00     -0.30000000E-01      0.25000000E+00
      0.00000000E+00     -0.30000000E-01      0.26000000E+00
      0.00000000E+00     -0.30000000E-01      0.27000000E+00
      0.00000000E+00     -0.30000000E-01      0.28000000E+00
      0.00000000E+00     -0.30000000E-01      0.29000000E+00
      0.00000000E+00     -0.30000000E-01      0.30000000E+00
      0.00000000E+00     -0.30000000E-01      0.31000000E+00
      0.00000000E+00     -0.30000000E-01      0.32000000E+00
      0.00000000E+00     -0.30000000E-01      0.33000000E+00
      0.00000000E+00     -0.30000000E-01      0.34000000E+00
      0.00000000E+00     -0.30000000E-01      0.35000000E+00
      0.00000000E+00     -0.30000000E-01      0.36000000E+00
      0.00000000E+00     -0.30000000E-01      0.37000000E+00
      0.00000000E+00     -0.30000000E-01      0.38000000E+00
      0.00000000E+00     -0.30000000E-01      0.39000000E+00
      0.00000000E+00     -0.30000000E-01      0.40000000E+00
      0.00000000E+00     -0.30000000E-01      0.41000000E+00
      0.00000000E+00     -0.30000000E-01      0.42000000E+00
      0.00000000E+00     -0.30000000E-01      0.43000000E+00
      0.00000000E+00     -0.30000000E-01      0.44000000E+00
      0.00000000E+00     -0.30000000E-01      0.45000000E+00
      0.00000000E+00     -0.30000000E-01      0.46000000E+00
      0.00000000E+00     -0.30000000E-01      0.47000000E+00
      0.00000000E+00     -0.30000000E-01      0.48000000E+00
      0.00000000E+00     -0.30000000E-01      0.49000000E+00
      0.10000000E-01     -0.30000000E-01      0.50000000E+00
      0.20000000E-01     -0.30000000E-01      0.50000000E+00
      0.30000000E-01     -0.30000000E-01      0.50000000E+00
      0.40000000E-01     -0.30000000E-01      0.50000000E+00
      0.50000000E-01     -0.30000000E-01      0.50000000E+00
      0.60000000E-01     -0.30000000E-01      0.50000000E+00
      0.70000000E-01     -0.30000000E-01      0.50000000E+00
      0.80000000E-01     -0.30000000E-01      0.50000000E+00
      0.90000000E-01     -0.30000000E-01      0.50000000E+00
      0.10000000E+00     -0.30000000E-01      0.50000000E+00
      0.11000000E+00     -0.30000000E-01      0.50000000E+00
      0.12000000E+00     -0.30000000E-01      0.50000000E+00
      0.13000000E+00     -0.30000000E-01      0.50000000E+00
      0.14000000E+00     -0.30000000E-01      0.50000000E+00
      0.15000000E+00     -0.30000000E-01      0.50000000E+00
      0.16000000E+00     -0.30000000E-01      0.50000000E+00
      0.17000000E+00     -0.30000000E-01      0.50000000E+00
      0.18000000E+00     -0.30000000E-01      0.50000000E+00
      0.19000000E+00     -0.30000000E-01      0.50000000E+00
      0.20000000E+00     -0.30000000E-01      0.50000000E+00
      0.21000000E+00     -0.30000000E-01      0.50000000E+00
      0.22000000E+00     -0.30000000E-01      0.50000000E+00
      0.23000000E+00     -0.30000000E-01      0.50000000E+00
      0.24000000E+00     -0.30000000E-01      0.50000000E+00
      0.25000000E+00     -0.30000000E-01      0.50000000E+00
      0.26000000E+00     -0.30000000E-01      0.50000000E+00
      0.27000000E+00     -0.30000000E-01      0.50000000E+00
      0.28000000E+00     -0.30000000E-01      0.50000000E+00
      0.29000000E+00     -0.30000000E-01      0.50000000E+00
      0.30000000E+00     -0.30000000E-01      0.50000000E+00
      0.31000000E+00     -0.30000000E-01      0.50000000E+00
      0.32000000E+00     -0.30000000E-01      0.50000000E+00
      0.33000000E+00     -0.30000000E-01      0.50000000E+00
      0.34000000E+00     -0.30000000E-01      0.50000000E+00
      0.35000000E+00     -0.30000000E-01      0.50000000E+00
      0.36000000E+00     -0.30000000E-01      0.50000000E+00
      0.37000000E+00     -0.30000000E-01      0.50000000E+00
[...]
POINT_DATA      8652
CELL_DATA     32557
SCALARS Resistivity(ohm.m) double 1
LOOKUP_TABLE default
            23.88781            23.65009            22.52163            30.18871            25.06196            39.34042            34.10902            30.09592            26.47670            35.39106            31.29923            34.02721            46.43080            25.16206            21.11643            19.85066            17.21970            40.96091            29.23748            33.13422            35.65117            26.01332            13.45704            32.37358            27.14864            27.97085            27.23858            28.45441            39.26470            16.83517            27.37423            29.06252            24.88605            27.19135            31.06612            25.09804            21.16937            42.47431            18.47860            26.77702            22.62339            32.94725            27.33822            21.59262            29.38943            28.75380            27.15872            26.32818            31.43019            35.05189            25.06737            43.85164            34.63115            29.17711            30.31910            25.17052            33.51085            35.72174            42.10109            23.48872            37.91302            17.90633            22.52472            23.35360            41.15201            26.71800            38.14345            27.77397            39.08618            28.44011            26.14143            17.86635            22.76267            33.94040            37.32691            25.85171            34.11532            27.11511            14.97794            23.01329            35.16330            32.21725            26.78218            28.37955            26.43151            28.06905            33.16707            37.63397            27.40700            38.95211            24.04002            29.73166            35.89134            26.35872            35.41750            28.04464            43.71047            26.60132            20.98502            33.25453            33.35646            19.94637            32.98644            32.11259            28.63919            28.62423            30.19551            27.00714            46.98211            23.35502            41.86390            33.31104            31.87292            33.17373            30.08340            27.77187            25.29107            38.40360            20.66843            32.86693            28.79365            30.61166            29.87037            32.44671            28.25442            32.26774            29.92558            31.80419            25.29000            26.30426            34.48662            24.62235            25.23308            24.44662            38.53016            22.70989            25.73871            36.37329            22.44559            18.12890            35.11626            33.09822            35.31494            26.45710            31.13054            40.23558            25.31996            21.90704            24.55477            11.79740            21.77270            15.07487            23.51056            28.53879            27.44939            18.75592            20.62122            32.19915            28.13645            42.31014            23.01269            32.04431            17.90104            39.41359            33.64899            23.62781            37.39522            24.46498            28.90428            21.25477            28.16756            33.75453            26.02657            22.33607            32.02012            28.43252            29.53969            28.03397            28.23515            30.30049            26.27513            30.06242            30.54291            35.51030            38.65171            37.70110            27.44584            25.77767            30.50890            31.75737            25.36564            15.47919            26.06391            29.97330            32.62463            37.58092            27.79445            37.88961            31.27878            27.39096            22.32259            41.73554            26.94616            33.08746            25.01166            31.28185            29.67315            29.44672            27.70857            29.06423            30.46477            29.38706            31.03531            27.15373            31.76284            29.67328            23.98886            31.73625            26.99059            23.22292            27.45064            31.79911            20.58669            37.73502            26.13764            26.78840            45.57261            30.68780            31.69065            30.96012            34.60553            27.06754            21.39100            25.07123            21.60227            28.08417            34.04854            35.15258            30.87769            21.87029            28.90365            32.26248            23.42089            21.94976            28.45422            33.78210            28.93835            32.98187            35.17160            29.01468            26.82628            27.18184            22.33399            22.22636            32.74662            32.10131            33.30561            23.59295            32.41186            32.98923            19.99779            25.58467            22.56567            27.28845            24.42016            30.14375            34.29932            18.06116            17.82902            30.81406            23.96488            25.15118            18.17811            32.61884            18.91209            28.07894            44.09772            24.87938            28.26332            26.50046            34.58645            31.40686            27.04128            26.66414            18.99060            27.19006            26.59736            22.21910            30.61399            32.09893            32.72229            26.13108            22.79590            24.68672            36.63100            31.51570            34.47545            27.80373            22.80205            26.19673            24.73913            21.63370            39.58725            27.18311            18.85383            21.88090            23.64963            19.49895            30.72771            47.20968            15.39835            43.34016            23.14673            28.23770            33.02251            27.96743            23.18526            31.74855            34.03272            34.36206            28.87754            32.80978            29.08030            28.97616            27.78544            36.46861            26.97932            21.45566            24.36306            29.20881            26.28246            27.06319            25.37665            26.86280            42.95655            30.29993            22.44196            26.11600            31.69108            35.90715            25.10295            32.93893            35.03930            38.41356            39.49866            27.96353            38.59373            22.77440            37.56174            28.83201            23.06241            35.21127            29.64836            27.96589            25.58960            32.88022            30.45671            31.97733            18.72167            11.95984            37.30090            32.15740            39.57880            36.81036            33.63701            37.12304            31.62510            31.60410            40.04718            19.58071            39.10735            29.65221            22.78167            34.32419            26.00561            29.78468            27.15821            22.16045            34.85870            20.74006            28.93855            26.03120            38.97522            11.30165            25.88668            27.71020            20.78886            27.04064            27.89791            31.08456            45.29953            45.08941            30.62441            33.18607            22.89154            27.51535            42.59568            37.44129            23.95401            24.20619            27.74934            23.60341            29.01640            35.19963            31.95414            43.92953            34.90979            31.52387            25.80131            28.54983            25.77577            29.09142            29.15344            27.44078            10.95503            30.73936            22.22280            26.13078            26.55979            33.65973            22.14443            39.00432            22.30123            31.69454            33.61777            29.94420            27.60594            26.54529            28.13144            44.60578            28.32304            30.07501            25.80942            25.41703            39.83282            28.24397            33.64285            37.52185            24.12407            31.50926            33.38569            29.55245            45.78628            38.40990            27.48596            29.12307            25.46799            29.23428            26.56628            43.40374            37.90816            36.00299            45.47448            29.02360            35.84012            23.40201            29.63402            42.18029            37.34634            25.74850            27.75214            28.97287            25.78761            32.07517            28.89656            29.43708            30.18727            24.44644            29.41063            33.00984            20.55244            27.25387            33.10186            29.18603            26.66437            32.11079            29.04757            21.86286            37.59694            28.96964            42.02944            28.82271            29.95499            22.25188            29.63793            25.62570            29.86025            29.23035            26.98315            23.75108            32.79681            26.77038            35.46999            32.77396            16.61550            28.70115            22.62062            35.35835            35.46874            33.67111            22.46933            29.12357            42.30635            28.50916            28.72586            23.68678            36.56137            33.29752            29.49962            37.11163            24.44252            36.38691            24.80815            32.12616            29.94554            31.49668            26.71950            34.53364            29.77769            21.10983            22.21332            23.04084            29.86097            32.51279            41.68720            28.96610            23.50670            35.41544            28.57968            43.27050            30.22992            31.65204            28.91707            36.49829            28.30476            32.95335            34.18928            28.93873            41.06186            35.06381            28.02714            27.76186            25.87772            23.90724            27.20866            26.23392            26.43409            20.07582            28.40709            29.94844            31.36124            33.00822            32.66058            30.87932            22.50016            14.58311            26.73495            33.49879            28.18572            16.35995            36.05814            24.38416            27.71284            30.64898            22.50586            38.45949            22.28046            28.12204            19.21975            28.58531            30.34131            28.32969            29.78970            21.24069            13.08735            30.79954            17.36486            26.86925            28.60272            27.20407            22.02771            26.90517            11.88875            29.58941            19.11856            33.12433            11.47844            26.04248            33.28703            28.20132            31.74611            24.80063            35.47741            28.57061            24.55292            26.84461            22.02425            28.52850            30.85068            27.61693            28.63981            29.77331            32.19013            18.68904            31.60121            25.68933            24.61084            27.85411            31.77853            28.63390            34.97401            15.96281            25.00923            30.45396            30.71344            27.02999            34.13942            23.24266            28.35601            25.87196            32.39516            24.56538            27.21211            28.14348            37.86284            23.02023            29.29214            33.19430            25.92206            35.09175            37.27806            29.91260            28.49380            29.50557            34.22281            27.76905            32.96464            25.33362            26.97768            27.37510            32.11462            31.74619            35.50354            23.65796            28.17000            23.93545            23.82561            42.06701            26.59916            25.26164            37.92706            29.64877            22.89495            35.12662            29.12452            28.42304            19.96969            33.43545            30.00653            28.23708            31.07726            23.72130            26.89658            38.65676            27.11969            26.14385            39.14704            36.42483            30.94347            26.83489            30.11956            17.02995            29.80888            44.93192            31.36962            12.72656            26.57712            34.66203            37.41914            31.70645            31.52785            39.92254            33.78883            29.69825            28.32376            21.78246            31.90177            23.79177            38.77385            36.15203            30.56147            39.79103            26.73595            31.59820            26.12973            37.41580            37.43543            30.30863            28.38757            37.25151            23.30337            30.80249            38.24152            27.82192            29.78296            34.17145            26.99907            29.09297            33.80497            19.46387            37.42235            19.63205            25.13067            39.67888            30.19051            29.35944            34.69398            30.82026            40.28985            23.74343            33.33814            17.60125            29.85329            27.47815            28.02061            24.40613            25.71522            33.78622            35.63826            37.67433            33.00015            36.91103            19.92496            33.84710            21.15717            32.91974            33.54694            28.27019            37.47061            33.47224            29.73744            29.66833            41.82034            25.41954            20.64886            29.64061            10.38561            32.80813            26.59041            15.65969            24.21287            25.98893            24.12998            30.00647            32.66614            19.33965            30.07361            26.62303            24.08869            16.66099            23.84946            38.11955            33.30802            37.60106            42.87721            36.29647            32.55650            18.08846            29.13400            27.16575            18.87687            25.78205            27.89303            34.86562            27.43338            34.50584            28.78098            27.86942            36.05394            24.03303            26.63182            29.95954            30.65379            31.39791            27.38955            24.26618            22.06251            41.93557            23.68792            30.77535            32.36164            30.98891            27.25386            30.14271            23.89199            30.63823            38.93503            30.06619            25.97428            29.45127            29.99622            33.54452            28.31866            31.93853            22.91736            29.87480            28.21266            26.38171            23.71735            15.75138            31.72185            23.78043            20.61344            21.57708            44.25817            24.86629            33.52530            22.32459            34.14603            36.87667            21.26531            22.21173            34.46047            36.17912            30.54673            26.15559            19.26665            23.36907            27.88384            29.11793            22.60502            21.59342            21.79390            22.52572            31.31676            26.30040            29.21436            26.33872            43.54155            27.89292            29.46833            29.54634            33.33746            22.96198            39.62288            21.20572            26.30429            37.76489            29.90343            33.81356            28.65397            32.85933            45.52880            36.46693            32.58872            38.03876            27.09966            28.79233            26.77429            25.02682            17.44313            37.04266            25.19278            23.31320            17.89365            31.67478            36.90864            32.69453            29.53811            43.10908            30.08601            22.41080            26.47758            39.67741            29.94891            39.66527            24.89015            34.40502            30.99218            18.60538            20.42992            31.80359            36.36612            33.04977            31.92745            26.70054            27.64379            38.16620            23.20903            31.33357            23.24619            31.12525            22.23893            21.66282            26.73273            33.53356            32.49674            23.83544            26.91514            32.06501            23.23498            35.35563            26.19903            30.61964            38.84476            31.93457            36.73582            37.56973            34.77648            28.87643            20.27208            18.38893            25.10181            22.65215            29.63975            22.62228            19.04061            31.76697            26.03598            20.68933            18.57249            22.01919            22.91591            37.86579            28.20943            37.94364            25.89804            43.42878            34.58957            32.02797            45.09689            32.08505            21.41498            32.07467            22.14491            33.63899            24.92354            32.76687            29.04448            30.32496            34.54311            28.95875            34.93239            37.53883            28.07541            23.29345            25.43456            32.63213            24.64607            31.86931            34.88973            20.46979            33.29694            32.93996            28.32453            32.72745            45.44343            26.06627            29.09964            33.03049            28.12232            20.56865            36.22892            31.20807            38.22345            23.85421            23.21591            20.22503            29.04176            37.88551            30.50374            28.91955            26.41577            32.92705            28.76515            40.80933            22.67245            15.04912            35.38900            35.34049            37.66967            29.62190            36.40277            21.44005            23.98377            35.92282            28.23886            33.90071            37.38555            32.89281            40.00908            27.05409            27.64156            31.47062            17.35943  