# vtk DataFile Version 3.0
Output from R3t
ASCII
DATASET UNSTRUCTURED_GRID
POINTS       8652 double
      0.50000000E-01     -0.50000000E-02      0.48500000E+00
      0.10000000E+00     -0.50000000E-02      0.48500000E+00
      0.15000000E+00     -0.50000000E-02      0.48500000E+00
      0.20000000E+00     -0.50000000E-02      0.48500000E+00
      0.25000000E+00     -0.50000000E-02      0.48500000E+00
      0.30000000E+00     -0.50000000E-02      0.48500000E+00
      0.35000000E+00     -0.50000000E-02      0.48500000E+00
      0.40000000E+00     -0.50000000E-02      0.48500000E+00
      0.50000000E-01      0.00000000E+00      0.42500000E+00
      0.10000000E+00      0.00000000E+00      0.42500000E+00
      0.15000000E+00      0.00000000E+00      0.42500000E+00
      0.20000000E+00      0.00000000E+00      0.42500000E+00
      0.25000000E+00      0.00000000E+00      0.42500000E+00
      0.30000000E+00      0.00000000E+00      0.42500000E+00
      0.35000000E+00      0.00000000E+00      0.42500000E+00
      0.40000000E+00      0.00000000E+00      0.42500000E+00
      0.50000000E-01      0.00000000E+00      0.37500000E+00
      0.10000000E+00      0.00000000E+00      0.37500000E+00
      0.15000000E+00      0.00000000E+00      0.37500000E+00
      0.20000000E+00      0.00000000E+00      0.37500000E+00
      0.25000000E+00      0.00000000E+00      0.37500000E+00
      0.30000000E+00      0.00000000E+00      0.37500000E+00
      0.35000000E+00      0.00000000E+00      0.37500000E+00
      0.40000000E+00      0.00000000E+00      0.37500000E+00
      0.50000000E-01      0.00000000E+00      0.32500000E+00
      0.10000000E+00      0.00000000E+00      0.32500000E+00
      0.15000000E+00      0.00000000E+00      0.32500000E+00
      0.20000000E+00      0.00000000E+00      0.32500000E+00
      0.25000000E+00      0.00000000E+00      0.32500000E+00
      0.30000000E+00      0.00000000E+00      0.32500000E+00
      0.35000000E+00      0.00000000E+00      0.32500000E+00
      0.40000000E+00      0.00000000E+00      0.32500000E+00
      0.50000000E-01      0.00000000E+00      0.27500000E+00
      0.10000000E+00      0.00000000E+00      0.27500000E+00
      0.15000000E+00      0.00000000E+00      0.27500000E+00
      0.20000000E+00      0.00000000E+00      0.27500000E+00
      0.25000000E+00      0.00000000E+00      0.27500000E+00
      0.30000000E+00      0.00000000E+00      0.27500000E+00
      0.35000000E+00      0.00000000E+00      0.27500000E+00
      0.40000000E+00      0.00000000E+00      0.27500000E+00
      0.50000000E-01      0.00000000E+00      0.22500000E+00
      0.10000000E+00      0.00000000E+00      0.22500000E+00
      0.15000000E+00      0.00000000E+00      0.22500000E+00
      0.20000000E+00      0.00000000E+00      0.22500000E+00
      0.25000000E+00      0.00000000E+00      0.22500000E+00
      0.30000000E+00      0.00000000E+00      0.22500000E+00
      0.35000000E+00      0.00000000E+00      0.22500000E+00
      0.40000000E+00      0.00000000E+00      0.22500000E+00
      0.50000000E-01      0.00000000E+00      0.17500000E+00
      0.10000000E+00      0.00000000E+00      0.17500000E+00
      0.15000000E+00      0.00000000E+00      0.17500000E+00
      0.20000000E+00      0.00000000E+00      0.17500000E+00
      0.50000000E-01      0.00000000E+00      0.12500000E+00
      0.10000000E+00      0.00000000E+00      0.12500000E+00
      0.15000000E+00      0.00000000E+00      0.12500000E+00
      0.20000000E+00      0.00000000E+00      0.12500000E+00
      0.25000000E+00      0.00000000E+00      0.12500000E+00
      0.30000000E+00      0.00000000E+00      0.12500000E+00
      0.35000000E+00      0.00000000E+00      0.12500000E+00
      0.40000000E+00      0.00000000E+00      0.12500000E+00
      0.50000000E-01      0.00000000E+00      0.75000000E-01
      0.10000000E+00      0.00000000E+00      0.75000000E-01
      0.15000000E+00      0.00000000E+00      0.75000000E-01
      0.20000000E+00      0.00000000E+00      0.75000000E-01
      0.25000000E+00      0.00000000E+00      0.75000000E-01
      0.30000000E+00      0.00000000E+00      0.75000000E-01
      0.35000000E+00      0.00000000E+00      0.75000000E-01
      0.40000000E+00      0.00000000E+00      0.75000000E-01
      0.00000000E+00      0.00000000E+00      0.00000000E+00
      0.45000000E+00      0.00000000E+00      0.00000000E+00
      0.00000000E+00      0.00000000E+00      0.50000000E+00
      0.45000000E+00      0.00000000E+00      0.50000000E+00
      0.00000000E+00     -0.30000000E-01      0.00000000E+00
      0.45000000E+00     -0.30000000E-01      0.00000000E+00
      0.00000000E+00     -0.30000000E-01      0.50000000E+00
      0.45000000E+00     -0.30000000E-01      0.50000000E+00
      0.00000000E+00     -0.30000000E-01      0.10000000E-01
      0.00000000E+00     -0.30000000E-01      0.20000000E-01
      0.00000000E+00     -0.30000000E-01      0.30000000E-01
      0.00000000E+00     -0.30000000E-01      0.40000000E-01
      0.00000000E+00     -0.30000000E-01      0.50000000E-01
      0.00000000E+00     -0.30000000E-01      0.60000000E-01
      0.00000000E+00     -0.30000000E-01      0.70000000E-01
      0.00000000E+00     -0.30000000E-01      0.80000000E-01
      0.00000000E+00     -0.30000000E-01      0.90000000E-01
      0.00000000E+00     -0.30000000E-01      0.10000000E+00
      0.00000000E+00     -0.30000000E-01      0.11000000E+00
      0.00000000E+00     -0.30000000E-01      0.12000000E+00
      0.00000000E+00     -0.30000000E-01      0.13000000E+00
      0.00000000E+00     -0.30000000E-01      0.14000000E+00
      0.00000000E+00     -0.30000000E-01      0.15000000E+00
      0.00000000E+00     -0.30000000E-01      0.16000000E+00
      0.00000000E+00     -0.30000000E-01      0.17000000E+00
      0.00000000E+00     -0.30000000E-01      0.18000000E+00
      0.00000000E+00     -0.30000000E-01      0.19000000E+00
      0.00000000E+00     -0.30000000E-01      0.20000000E+00
      0.00000000E+00     -0.30000000E-01      0.21000000E+00
      0.00000000E+00     -0.30000000E-01      0.22000000E+00
      0.00000000E+00     -0.30000000E-01      0.23000000E+00
      0.00000000E+00     -0.30000000E-01      0.24000000E+00
      0.00000000E+00     -0.30000000E-01      0.25000000E+00
      0.00000000E+00     -0.30000000E-01      0.26000000E+00
      0.00000000E+00     -0.30000000E-01      0.27000000E+00
      0.00000000E+00     -0.30000000E-01      0.28000000E+00
      0.00000000E+00     -0.30000000E-01      0.29000000E+00
      0.00000000E+00     -0.30000000E-01      0.30000000E+00
      0.00000000E+00     -0.30000000E-01      0.31000000E+00
      0.00000000E+00     -0.30000000E-01      0.32000000E+00
      0.00000000E+00     -0.30000000E-01      0.33000000E+00
      0.00000000E+00     -0.30000000E-01      0.34000000E+00
      0.00000000E+00     -0.30000000E-01      0.35000000E+00
      0.00000000E+00     -0.30000000E-01      0.36000000E+00
      0.00000000E+00     -0.30000000E-01      0.37000000E+00
      0.00000000E+00     -0.30000000E-01      0.38000000E+00
      0.00000000E+00     -0.30000000E-01      0.39000000E+00
      0.00000000E+00     -0.30000000E-01      0.40000000E+00
      0.00000000E+00     -0.30000000E-01      0.41000000E+00
      0.00000000E+00     -0.30000000E-01      0.42000000E+00
      0.00000000E+00     -0.30000000E-01      0.43000000E+00
      0.00000000E+00     -0.30000000E-01      0.44000000E+00
      0.00000000E+00     -0.30000000E-01      0.45000000E+00
      0.00000000E+00     -0.30000000E-01      0.46000000E+00
      0.00000000E+00     -0.30000000E-01      0.47000000E+00
      0.00000000E+00     -0.30000000E-01      0.48000000E+00
      0.00000000E+00     -0.30000000E-01      0.49000000E+00
      0.10000000E-01     -0.30000000E-01      0.50000000E+00
      0.20000000E-01     -0.30000000E-01      0.50000000E+00
      0.30000000E-01     -0.30000000E-01      0.50000000E+00
      0.40000000E-01     -0.30000000E-01      0.50000000E+00
      0.50000000E-01     -0.30000000E-01      0.50000000E+00
      0.60000000E-01     -0.30000000E-01      0.50000000E+00
      0.70000000E-01     -0.30000000E-01      0.50000000E+00
      0.80000000E-01     -0.30000000E-01      0.50000000E+00
      0.90000000E-01     -0.30000000E-01      0.50000000E+00
      0.10000000E+00     -0.30000000E-01      0.50000000E+00
      0.11000000E+00     -0.30000000E-01      0.50000000E+00
      0.12000000E+00     -0.30000000E-01      0.50000000E+00
      0.13000000E+00     -0.30000000E-01      0.50000000E+00
      0.14000000E+00     -0.30000000E-01      0.50000000E+00
      0.15000000E+00     -0.30000000E-01      0.50000000E+00
      0.16000000E+00     -0.30000000E-01      0.50000000E+00
      0.17000000E+00     -0.30000000E-01      0.50000000E+00
      0.18000000E+00     -0.30000000E-01      0.50000000E+00
      0.19000000E+00     -0.30000000E-01      0.50000000E+00
      0.20000000E+00     -0.30000000E-01      0.50000000E+00
      0.21000000E+00     -0.30000000E-01      0.50000000E+00
      0.22000000E+00     -0.30000000E-01      0.50000000E+00
      0.23000000E+00     -0.30000000E-01      0.50000000E+00
      0.24000000E+00     -0.30000000E-01      0.50000000E+00
      0.25000000E+00     -0.30000000E-01      0.50000000E+00
      0.26000000E+00     -0.30000000E-01      0.50000000E+00
      0.27000000E+00     -0.30000000E-01      0.50000000E+00
      0.28000000E+00     -0.30000000E-01      0.50000000E+00
      0.29000000E+00     -0.30000000E-01      0.50000000E+00
      0.30000000E+00     -0.30000000E-01      0.50000000E+00
      0.31000000E+00     -0.30000000E-01      0.50000000E+00
      0.32000000E+00     -0.30000000E-01      0.50000000E+00
      0.33000000E+00     -0.30000000E-01      0.50000000E+00
      0.34000000E+00     -0.30000000E-01      0.50000000E+00
      0.35000000E+00     -0.30000000E-01      0.50000000E+00
      0.36000000E+00     -0.30000000E-01      0.50000000E+00
      0.37000000E+00     -0.30000000E-01      0.50000000E+00
[...]
POINT_DATA      8652
CELL_DATA     32557
SCALARS Resistivity(ohm.m) double 1
LOOKUP_TABLE default
            23.86429            20.35536            23.43847            22.83852            20.31810            26.88845            24.90734            26.10321            22.23743            25.31074            25.03435            26.63784            27.35875            23.13493            21.55088            21.98343            17.29371            29.58287            23.93234            26.60763            28.45729            20.02242            17.05946            25.51873            18.39375            20.67130            26.22523            23.04963            30.98439            16.87328            22.17710            22.75074            19.98413            25.58980            20.29583            25.87175            20.07191            31.04708            19.64001            26.07095            22.39546            26.62549            22.86440            22.74500            26.01963            25.96905            22.70204            22.93894            23.84533            29.37015            18.37862            31.08108            26.81191            21.62421            23.08839            19.69454            26.78003            25.33369            30.02392            20.18510            26.39010            16.87016            22.91267            18.75835            27.03781            22.50922            25.72191            23.92106            26.89124            23.85659            20.08578            17.80385            21.98196            26.72165            26.39780            20.29816            27.23871            24.53479            17.54767            18.04473            29.11272            22.20144            25.65746            22.37199            22.31543            20.59999            25.43630            26.44461            22.39105            26.44793            20.47905            26.80880            30.20373            26.21519            28.03118            26.49635            28.37262            23.11969            22.13895            25.19031            25.16613            21.42407            23.20650            22.09212            23.37682            22.64103            20.92470            18.42746            27.37628            18.33380            27.55186            24.46976            22.41290            24.36251            23.09512            22.39092            19.86366            30.84785            22.34005            23.15086            23.05400            21.13393            24.70201            25.13843            24.19461            24.01146            26.06335            25.27463            20.34931            20.55077            27.93220            23.45475            22.44741            21.54253            26.50184            19.92919            22.45021            24.83348            22.30328            24.06694            25.13907            24.48978            29.25955            23.88819            22.99813            27.85276            22.49010            18.19399            22.66720            17.48309            23.35467            17.31820            20.19301            26.15543            26.08826            18.18113            19.52331            25.17215            25.15779            30.07135            19.55237            26.09783            17.42323            26.39933            24.80465            18.75309            26.39043            19.15805            19.70486            19.42696            26.57053            25.25530            23.04197            24.29961            25.17822            21.55290            21.69827            21.28559            21.17722            21.98504            22.56115            26.27063            26.41316            26.34991            26.64241            26.64344            22.19370            20.73119            22.92052            25.28293            20.40452            16.48480            20.34340            22.75880            26.25867            26.38726            20.34999            24.67620            22.31183            22.98205            22.42482            24.80092            22.73391            23.16728            23.95058            24.82476            20.14592            23.51401            25.30939            24.41570            22.37447            22.13581            23.09488            25.52171            20.17515            24.32829            19.80278            23.63934            20.23468            20.00719            24.47070            25.16462            21.97538            27.02373            25.31166            19.74866            30.81219            23.15263            25.28951            26.55162            24.35587            24.25884            23.54475            19.88405            21.83905            22.67971            26.34251            22.29811            26.35461            19.41175            25.30213            26.57363            22.63561            20.73496            23.54681            26.35104            26.20180            23.19614            29.20903            23.36535            24.36155            25.17537            21.55469            19.91505            25.11424            23.49962            23.13699            20.21197            21.95048            25.16204            18.36252            24.44669            19.22295            20.26235            22.16787            22.55099            28.58313            17.48245            17.30210            25.97515            20.55093            18.69001            19.66387            25.21283            22.52479            19.85620            26.53614            24.29037            22.75559            20.95174            26.58070            22.40894            24.02977            23.14601            17.20762            25.04266            21.31398            21.50515            21.48982            27.23153            24.87020            23.62062            22.54729            22.64662            27.52453            25.04941            25.29824            24.47901            19.89507            20.53348            22.34726            23.38912            26.64065            19.87879            17.91678            21.65337            20.57061            21.08568            26.57081            26.79077            17.13347            28.31682            19.76425            26.10643            23.24359            21.10791            20.89986            24.79723            28.32301            26.23772            21.27670            23.94918            24.06496            20.25971            26.00034            27.08318            26.29605            19.51515            21.85977            26.00345            20.35397            21.98318            20.12467            26.34117            30.10992            25.61431            24.06970            19.74535            22.09142            26.33841            19.85583            24.94564            27.23151            24.54258            26.10226            22.98014            26.30498            22.87829            26.21301            21.06646            20.63455            30.42600            22.38758            20.11859            23.80852            25.25681            22.06556            20.19533            22.46027            19.10090            26.42795            23.38726            25.90211            22.92166            28.50709            26.23094            25.29056            24.89035            26.48428            22.76052            26.30448            22.75919            22.55662            28.12686            22.55610            21.48513            26.19522            23.77723            29.22058            19.40932            19.84235            25.11331            26.48352            18.59139            22.65909            18.64191            19.78111            25.64781            23.78124            23.06330            27.19442            26.75369            24.99513            27.45724            23.93095            19.81406            25.64030            24.77823            19.68404            25.26401            20.24556            22.29540            26.27053            23.40658            25.12000            28.48180            25.35624            22.97429            22.47953            22.33485            22.11612            20.06071            22.77299            25.62876            18.83544            24.06759            23.45219            22.27163            22.66006            26.30550            20.31482            26.67087            22.38447            25.11009            25.02895            24.73205            23.96983            18.79805            26.10906            27.29371            24.28510            24.31907            24.62655            26.21424            26.60699            25.34845            28.42839            26.51681            20.16679            25.30448            24.61697            24.24906            26.81534            26.05067            22.78926            25.92894            20.15444            26.09875            24.07386            26.49344            26.10108            30.60399            26.79310            23.91119            28.59726            22.19483            22.51586            24.14335            26.59180            18.87741            22.11322            22.96455            22.15251            26.73922            24.83128            26.05450            24.60987            22.80885            25.09092            25.17023            22.03362            23.52962            24.88993            21.84312            18.57237            23.34180            23.54116            19.62380            26.52469            26.08350            24.01934            22.54821            24.87682            19.82887            23.70956            21.24417            26.26218            21.51299            24.93303            22.58057            25.48850            23.18662            29.11249            23.07857            16.49381            22.33189            19.91457            29.29063            26.41556            24.35520            20.14913            20.73014            27.53378            25.97310            26.38682            22.75970            26.96076            28.38071            22.50867            24.87598            19.81031            26.35050            20.39540            25.22123            22.39924            25.30792            20.16393            28.73406            24.54748            17.78701            22.55484            19.86977            24.51050            25.11424            24.02266            22.66826            22.23247            27.77510            26.13166            25.42388            22.39547            25.05082            22.70195            26.12590            22.20389            22.89944            21.85555            23.03220            26.41454            25.35180            21.56724            22.28932            22.69606            25.51851            26.26071            22.89080            22.75921            18.16617            25.96497            22.75744            25.03747            25.07916            22.53192            24.43848            24.07528            22.39919            18.36516            25.16411            22.60546            17.75736            25.79136            19.69567            21.03163            23.07582            23.16977            26.33922            21.60358            20.58806            18.15876            23.18028            22.29009            25.96675            25.38423            21.63093            16.63346            25.62166            16.71791            24.13293            22.62584            22.11497            23.35782            22.84279            17.04671            21.51454            22.62285            25.47879            16.75197            23.72442            25.18966            21.46948            22.32320            19.73506            26.32119            22.56634            20.85315            25.60745            22.31579            25.96799            23.64833            25.44646            20.68980            22.80512            21.59283            22.19252            25.15191            22.61478            19.60699            25.97499            25.06382            20.16736            26.29517            16.94189            20.13285            25.62700            26.24964            22.92121            26.27834            21.04709            25.96420            22.68213            25.12957            22.86754            19.54844            25.58232            26.41787            22.39363            22.42179            24.19623            22.89819            27.51087            26.27154            22.29232            26.38011            24.13726            25.20650            24.04545            25.44216            23.81383            23.31100            25.64019            21.94089            22.34294            25.82317            23.57101            24.33632            18.26397            22.34037            27.03053            23.16370            22.07437            26.10488            25.42596            19.37578            25.40026            21.11194            22.14377            23.06306            24.90368            21.68192            25.96600            21.26900            21.78619            23.90331            25.29088            23.83341            26.01153            26.10153            26.94401            22.96848            22.19265            22.35561            17.37442            26.04173            30.88742            24.83599            16.44515            18.31904            24.91832            26.47343            25.29180            28.02777            25.54791            26.74194            26.58788            20.72443            19.89495            25.53742            20.37089            26.10267            26.89321            25.83323            26.06516            20.73210            25.29455            22.44885            26.53240            25.96332            25.61074            25.04273            30.10602            22.57835            24.40927            28.15038            24.29728            21.84450            23.67213            20.77147            21.67903            26.65607            22.69564            26.00726            17.11903            22.98623            26.18507            23.70027            22.76615            24.85732            25.64345            26.11559            19.89641            26.40308            19.58494            22.51252            22.65822            23.39685            20.21111            24.71602            25.21818            25.11206            26.29967            25.06289            30.59700            21.75738            25.26181            23.15378            23.87721            25.12976            22.57288            25.02244            27.54620            21.74570            25.03148            27.04871            22.69650            18.73279            25.41674            18.24123            25.12007            25.73298            19.91650            22.38849            20.18371            23.84468            26.10306            22.40357            19.36354            22.78248            22.68183            23.74494            17.16997            19.68812            25.66328            23.98450            26.36134            31.35116            27.36167            23.75723            17.33754            20.94069            23.42584            23.05910            22.43422            26.39254            26.60809            20.82505            24.79412            20.91617            24.03399            25.87229            26.09310            18.18681            24.30881            25.81868            24.32594            22.34579            25.43485            23.04960            30.00413            22.45655            26.10875            26.36904            25.96084            23.01341            26.30260            22.46452            21.75407            26.64498            24.72281            22.31873            22.08058            19.00668            28.65607            22.70946            22.57295            18.66133            22.28076            24.08831            20.80846            23.37562            16.88762            22.45694            22.43402            17.86880            21.94747            27.26937            23.72816            28.32744            20.36721            28.60424            25.63883            17.95832            19.77610            24.71830            25.83436            24.55408            22.22210            18.03118            22.54102            20.03228            22.49030            22.11808            21.70696            19.32249            21.59577            25.77966            20.92800            21.42099            22.28532            27.44487            22.95021            22.78558            20.79470            22.06125            22.56916            25.70039            17.80441            18.86131            26.28521            25.10596            24.80970            22.38700            25.18111            30.90674            26.96176            25.15362            26.57659            24.01290            20.99587            23.94986            20.39897            17.38476            29.91948            23.41165            22.47592            19.80565            23.90486            26.53927            23.07056            22.30141            27.23403            25.78226            22.20268            18.75736            25.93209            22.29280            26.92558            25.52901            24.45577            25.02333            22.49163            21.31132            25.16331            25.84209            25.20252            25.60399            26.00287            19.08073            26.22668            22.63167            23.13506            20.15600            23.46389            21.57548            22.90211            20.51149            25.19205            28.41707            19.80479            24.32951            23.24183            22.22820            27.46390            19.71996            25.92651            25.99046            22.72209            28.09191            25.95300            25.31851            26.09596            18.41618            22.92574            22.81945            22.28293            26.55997            22.20718            18.06398            25.16895            20.59120            21.66664            19.07093            19.80174            18.73324            26.21768            23.41313            25.75461            25.48125            31.36807            26.61796            23.33939            27.19812            25.28174            19.79681            24.24052            25.58449            24.90942            23.16713            25.17212            23.16973            24.21096            26.72795            25.93482            25.32003            26.41123            22.32424            18.92123            24.26829            26.20948            22.65188            25.30630            28.81587            16.17169            25.22148            22.88746            20.80923            21.47841            30.91888            22.16513            22.75824            25.13455            25.99491            16.77979            29.81737            26.49599            27.21593            20.05026            21.58107            19.03578            22.58780            25.04453            26.08346            23.23196            26.16978            22.03210            22.71488            29.31369            19.29611            16.25502            29.50848            26.32631            24.66382            22.79027            22.92766            19.44697            23.46670            29.24704            25.96522            22.92298            26.19907            21.73079            25.96547            22.38672            22.57500            25.05361            24.26369  