# vtk DataFile Version 3.0
Output from R3t
ASCII
DATASET UNSTRUCTURED_GRID
POINTS       8652 double
      0.50000000E-01     -0.50000000E-02      0.48500000E+00
      0.10000000E+00     -0.50000000E-02      0.48500000E+00
      0.15000000E+00     -0.50000000E-02      0.48500000E+00
      0.20000000E+00     -0.50000000E-02      0.48500000E+00
      0.25000000E+00     -0.50000000E-02      0.48500000E+00
      0.30000000E+00     -0.50000000E-02      0.48500000E+00
      0.35000000E+00     -0.50000000E-02      0.48500000E+00
      0.40000000E+00     -0.50000000E-02      0.48500000E+00
      0.50000000E-01      0.00000000E+00      0.42500000E+00
      0.10000000E+00      0.00000000E+00      0.42500000E+00
      0.15000000E+00      0.00000000E+00      0.42500000E+00
      0.20000000E+00      0.00000000E+00      0.42500000E+00
      0.25000000E+00      0.00000000E+00      0.42500000E+00
      0.30000000E+00      0.00000000E+00      0.42500000E+00
      0.35000000E+00      0.00000000E+00      0.42500000E+00
      0.40000000E+00      0.00000000E+00      0.42500000E+00
      0.50000000E-01      0.00000000E+00      0.37500000E+00
      0.10000000E+00      0.00000000E+00      0.37500000E+00
      0.15000000E+00      0.00000000E+00      0.37500000E+00
      0.20000000E+00      0.00000000E+00      0.37500000E+00
      0.25000000E+00      0.00000000E+00      0.37500000E+00
      0.30000000E+00      0.00000000E+00      0.37500000E+00
      0.35000000E+00      0.00000000E+00      0.37500000E+00
      0.40000000E+00      0.00000000E+00      0.37500000E+00
      0.50000000E-01      0.00000000E+00      0.32500000E+00
      0.10000000E+00      0.00000000E+00      0.32500000E+00
      0.15000000E+00      0.00000000E+00      0.32500000E+00
      0.20000000E+00      0.00000000E+00      0.32500000E+00
      0.25000000E+00      0.00000000E+00      0.32500000E+00
      0.30000000E+00      0.00000000E+00      0.32500000E+00
      0.35000000E+00      0.00000000E+00      0.32500000E+00
      0.40000000E+00      0.00000000E+00      0.32500000E+00
      0.50000000E-01      0.00000000E+00      0.27500000E+00
      0.10000000E+00      0.00000000E+00      0.27500000E+00
      0.15000000E+00      0.00000000E+00      0.27500000E+00
      0.20000000E+00      0.00000000E+00      0.27500000E+00
      0.25000000E+00      0.00000000E+00      0.27500000E+00
      0.30000000E+00      0.00000000E+00      0.27500000E+00
      0.35000000E+00      0.00000000E+00      0.27500000E+00
      0.40000000E+00      0.00000000E+00      0.27500000E+00
      0.50000000E-01      0.00000000E+00      0.22500000E+00
      0.10000000E+00      0.00000000E+00      0.22500000E+00
      0.15000000E+00      0.00000000E+00      0.22500000E+00
      0.20000000E+00      0.00000000E+00      0.22500000E+00
      0.25000000E+00      0.00000000E+00      0.22500000E+00
      0.30000000E+00      0.00000000E+00      0.22500000E+00
      0.35000000E+00      0.00000000E+00      0.22500000E+00
      0.40000000E+00      0.00000000E+00      0.22500000E+00
      0.50000000E-01      0.00000000E+00      0.17500000E+00
      0.10000000E+00      0.00000000E+00      0.17500000E+00
      0.15000000E+00      0.00000000E+00      0.17500000E+00
      0.20000000E+00      0.00000000E+00      0.17500000E+00
      0.50000000E-01      0.00000000E+00      0.12500000E+00
      0.10000000E+00      0.00000000E+00      0.12500000E+00
      0.15000000E+00      0.00000000E+00      0.12500000E+00
      0.20000000E+00      0.00000000E+00      0.12500000E+00
      0.25000000E+00      0.00000000E+00      0.12500000E+00
      0.30000000E+00      0.00000000E+00      0.12500000E+00
      0.35000000E+00      0.00000000E+00      0.12500000E+00
      0.40000000E+00      0.00000000E+00      0.12500000E+00
      0.50000000E-01      0.00000000E+00      0.75000000E-01
      0.10000000E+00      0.00000000E+00      0.75000000E-01
      0.15000000E+00      0.00000000E+00      0.75000000E-01
      0.20000000E+00      0.00000000E+00      0.75000000E-01
      0.25000000E+00      0.00000000E+00      0.75000000E-01
      0.30000000E+00      0.00000000E+00      0.75000000E-01
      0.35000000E+00      0.00000000E+00      0.75000000E-01
      0.40000000E+00      0.00000000E+00      0.75000000E-01
      0.00000000E+00      0.00000000E+00      0.00000000E+00
      0.45000000E+00      0.00000000E+00      0.00000000E+00
      0.00000000E+00      0.00000000E+00      0.50000000E+00
      0.45000000E+00      0.00000000E+00      0.50000000E+00
      0.00000000E+00     -0.30000000E-01      0.00000000E+00
      0.45000000E+00     -0.30000000E-01      0.00000000E+00
      0.00000000E+00     -0.30000000E-01      0.50000000E+00
      0.45000000E+00     -0.30000000E-01      0.50000000E+00
      0.00000000E+00     -0.30000000E-01      0.10000000E-01
      0.00000000E+00     -0.30000000E-01      0.20000000E-01
      0.00000000E+00     -0.30000000E-01      0.30000000E-01
      0.00000000E+00     -0.30000000E-01      0.40000000E-01
      0.00000000E+00     -0.30000000E-01      0.50000000E-01
      0.00000000E+00     -0.30000000E-01      0.60000000E-01
      0.00000000E+00     -0.30000000E-01      0.70000000E-01
      0.00000000E+00     -0.30000000E-01      0.80000000E-01
      0.00000000E+00     -0.30000000E-01      0.90000000E-01
      0.00000000E+00     -0.30000000E-01      0.10000000E+00
      0.00000000E+00     -0.30000000E-01      0.11000000E+00
      0.00000000E+00     -0.30000000E-01      0.12000000E+00
      0.00000000E+00     -0.30000000E-01      0.13000000E+00
      0.00000000E+00     -0.30000000E-01      0.14000000E+00
      0.00000000E+00     -0.30000000E-01      0.15000000E+00
      0.00000000E+00     -0.30000000E-01      0.16000000E+00
      0.00000000E+00     -0.30000000E-01      0.17000000E+00
      0.00000000E+00     -0.30000000E-01      0.18000000E+00
      0.00000000E+00     -0.30000000E-01      0.19000000E+00
      0.00000000E+00     -0.30000000E-01      0.20000000E+00
      0.00000000E+00     -0.30000000E-01      0.21000000E+00
      0.00000000E+00     -0.30000000E-01      0.22000000E+00
      0.00000000E+00     -0.30000000E-01      0.23000000E+00
      0.00000000E+00     -0.30000000E-01      0.24000000E+00
      0.00000000E+00     -0.30000000E-01      0.25000000E+00
      0.00000000E+00     -0.30000000E-01      0.26000000E+00
      0.00000000E+00     -0.30000000E-01      0.27000000E+00
      0.00000000E+00     -0.30000000E-01      0.28000000E+00
      0.00000000E+00     -0.30000000E-01      0.29000000E+00
      0.00000000E+00     -0.30000000E-01      0.30000000E+00
      0.00000000E+00     -0.30000000E-01      0.31000000E+00
      0.00000000E+00     -0.30000000E-01      0.32000000E+00
      0.00000000E+00     -0.30000000E-01      0.33000000E+00
      0.00000000E+00     -0.30000000E-01      0.34000000E+00
      0.00000000E+00     -0.30000000E-01      0.35000000E+00
      0.00000000E+00     -0.30000000E-01      0.36000000E+00
      0.00000000E+00     -0.30000000E-01      0.37000000E+00
      0.00000000E+00     -0.30000000E-01      0.38000000E+00
      0.00000000E+00     -0.30000000E-01      0.39000000E+00
      0.00000000E+00     -0.30000000E-01      0.40000000E+00
      0.00000000E+00     -0.30000000E-01      0.41000000E+00
      0.00000000E+00     -0.30000000E-01      0.42000000E+00
      0.00000000E+00     -0.30000000E-01      0.43000000E+00
      0.00000000E+00     -0.30000000E-01      0.44000000E+00
      0.00000000E+00     -0.30000000E-01      0.45000000E+00
      0.00000000E+00     -0.30000000E-01      0.46000000E+00
      0.00000000E+00     -0.30000000E-01      0.47000000E+00
      0.00000000E+00     -0.30000000E-01      0.48000000E+00
      0.00000000E+00     -0.30000000E-01      0.49000000E+00
      0.10000000E-01     -0.30000000E-01      0.50000000E+00
      0.20000000E-01     -0.30000000E-01      0.50000000E+00
      0.30000000E-01     -0.30000000E-01      0.50000000E+00
      0.40000000E-01     -0.30000000E-01      0.50000000E+00
      0.50000000E-01     -0.30000000E-01      0.50000000E+00
      0.60000000E-01     -0.30000000E-01      0.50000000E+00
      0.70000000E-01     -0.30000000E-01      0.50000000E+00
      0.80000000E-01     -0.30000000E-01      0.50000000E+00
      0.90000000E-01     -0.30000000E-01      0.50000000E+00
      0.10000000E+00     -0.30000000E-01      0.50000000E+00
      0.11000000E+00     -0.30000000E-01      0.50000000E+00
      0.12000000E+00     -0.30000000E-01      0.50000000E+00
      0.13000000E+00     -0.30000000E-01      0.50000000E+00
      0.14000000E+00     -0.30000000E-01      0.50000000E+00
      0.15000000E+00     -0.30000000E-01      0.50000000E+00
      0.16000000E+00     -0.30000000E-01      0.50000000E+00
      0.17000000E+00     -0.30000000E-01      0.50000000E+00
      0.18000000E+00     -0.30000000E-01      0.50000000E+00
      0.19000000E+00     -0.30000000E-01      0.50000000E+00
      0.20000000E+00     -0.30000000E-01      0.50000000E+00
      0.21000000E+00     -0.30000000E-01      0.50000000E+00
      0.22000000E+00     -0.30000000E-01      0.50000000E+00
      0.23000000E+00     -0.30000000E-01      0.50000000E+00
      0.24000000E+00     -0.30000000E-01      0.50000000E+00
      0.25000000E+00     -0.30000000E-01      0.50000000E+00
      0.26000000E+00     -0.30000000E-01      0.50000000E+00
      0.27000000E+00     -0.30000000E-01      0.50000000E+00
      0.28000000E+00     -0.30000000E-01      0.50000000E+00
      0.29000000E+00     -0.30000000E-01      0.50000000E+00
      0.30000000E+00     -0.30000000E-01      0.50000000E+00
      0.31000000E+00     -0.30000000E-01      0.50000000E+00
      0.32000000E+00     -0.30000000E-01      0.50000000E+00
      0.33000000E+00     -0.30000000E-01      0.50000000E+00
      0.34000000E+00     -0.30000000E-01      0.50000000E+00
      0.35000000E+00     -0.30000000E-01      0.50000000E+00
      0.36000000E+00     -0.30000000E-01      0.50000000E+00
      0.37000000E+00     -0.30000000E-01      0.50000000E+00
[...]
POINT_DATA      8652
CELL_DATA     32557
SCALARS Resistivity(ohm.m) double 1
LOOKUP_TABLE default
            26.26467            25.02297            25.38126            27.88763            24.80968            32.08516            32.12358            28.88398            27.19613            33.44951            32.83127            35.86970            35.66169            25.95616            22.29889            23.07189            19.74799            35.94814            26.75170            34.00989            33.05566            24.42382            17.69810            33.63295            23.71894            23.83329            28.20780            29.03630            35.16904            18.50981            27.54470            27.06849            24.08417            28.26662            25.91023            27.44883            21.10586            36.30284            21.65514            28.52774            24.20444            33.97980            28.11475            24.48827            33.01700            28.47760            27.01507            29.32515            27.47745            35.38909            19.53678            36.48974            35.59026            28.31590            30.30450            25.43837            35.43436            33.54616            36.03389            24.74546            30.82384            18.37426            25.23812            22.87942            33.36616            27.39298            33.65471            29.10144            33.23204            27.86527            26.14913            19.85436            23.39227            32.81326            32.54704            23.24723            34.08960            31.60775            18.60037            19.73117            34.12806            27.55714            27.60178            28.10499            27.14495            24.23008            33.11437            32.60868            27.29572            34.96445            23.79540            33.83367            33.89598            28.35418            33.82257            32.90823            34.24676            29.58609            22.39474            33.37285            33.06804            23.02603            29.84127            28.11745            25.80882            27.19196            24.86603            22.21513            35.34580            20.04079            34.18091            31.59949            28.15712            31.41513            30.29928            27.76883            24.12020            34.89337            22.61662            28.26755            28.38255            25.02951            31.23402            33.25142            29.35259            31.06794            28.77332            31.89398            23.52489            24.60945            33.73082            25.81986            26.37330            24.64363            36.19650            24.51395            27.19092            32.46336            25.44153            22.70649            28.34945            26.37867            34.17334            27.16670            27.89636            34.52171            25.77919            19.81659            25.45901            17.45228            24.29137            18.55047            22.65274            32.56174            28.58671            20.21415            23.99459            33.43218            28.91037            36.00554            23.70055            30.58730            20.48465            32.65880            31.99322            23.04168            32.77081            24.10538            25.78596            23.08065            33.01431            33.61243            29.36437            23.56615            33.45691            24.87374            25.02654            25.97821            26.58349            27.00281            26.66494            30.15670            31.49462            29.96873            31.10823            32.89598            25.95642            25.78058            28.09117            31.23838            23.59468            17.10520            25.94990            26.40984            29.68158            32.81798            25.78567            32.82398            29.91958            28.21695            23.19381            33.56100            29.74178            30.49927            24.75928            28.60046            25.51280            26.08543            27.14687            27.23219            28.75759            26.24365            29.24421            27.44849            25.25884            30.16186            24.75239            30.02254            25.29431            24.40770            27.91494            33.41970            24.56870            32.78396            30.54876            25.61267            36.57497            29.30512            31.23793            30.65269            32.24901            27.54609            25.21202            25.00959            23.79898            26.53085            33.89768            27.08920            31.67932            21.76991            29.21499            33.96025            25.23782            23.27328            26.10649            32.34876            28.88175            29.53675            34.16411            26.39514            26.80169            29.55779            22.90271            22.07219            32.62547            29.87510            29.89667            22.68900            26.98376            31.73203            21.52284            29.25332            22.79650            25.31297            25.88694            26.68337            33.99707            20.35336            21.26958            28.83606            24.62129            24.53177            21.78825            33.54076            22.96576            25.87986            36.60156            25.74487            27.83122            25.62674            33.28569            28.20702            24.91947            29.45895            18.80374            29.07384            26.11479            22.70301            29.24891            32.09494            32.67844            25.60920            25.43647            25.91353            33.64814            32.81252            33.38647            25.16386            24.58085            24.94553            26.47439            24.26429            32.64613            24.78846            20.25592            23.84383            25.29233            22.70210            31.44692            37.20997            18.50600            34.11864            24.13665            28.62278            28.10359            26.15140            23.90950            31.64562            35.05064            29.55410            26.66109            31.51556            28.11690            25.60223            28.44425            33.42374            28.28460            23.82259            26.26997            28.59948            23.20467            27.62893            24.13081            27.20652            36.21908            31.13906            23.20816            24.60948            26.58349            34.25994            22.38539            31.80630            33.69560            33.00275            35.48123            28.33343            30.96499            24.44611            35.11681            25.87270            26.12070            34.09303            28.00669            25.75046            27.81977            31.49662            26.93329            25.42664            22.84069            19.06913            32.71344            29.29886            32.96386            27.21522            31.68209            30.11414            31.30896            28.65395            35.42530            23.15553            32.52668            26.65040            25.40105            33.78533            28.38766            24.81951            28.08940            24.45520            34.24308            23.71747            25.58320            30.79107            32.32006            18.46998            25.68600            22.35306            24.53914            29.59579            29.12066            29.61334            34.27008            36.68347            32.74253            34.16456            24.62544            25.75124            33.79101            32.69600            23.43558            26.96641            24.61004            26.26821            29.00058            31.65141            33.26449            34.32233            33.58522            29.59589            25.67842            27.98570            26.70561            25.62718            27.40156            28.35386            18.48779            27.68542            24.50617            27.29261            25.85366            31.12504            23.43364            31.83504            25.22807            33.24810            33.04758            31.29274            26.25515            24.47855            28.64739            36.00453            27.20252            28.47056            31.55917            26.98307            32.95683            30.76741            35.02641            36.15901            24.83920            31.16858            31.82025            26.85179            36.86300            34.92711            27.86337            32.63978            24.18979            30.01418            27.37205            36.45919            30.37503            34.46870            36.97773            29.74313            33.34983            25.38759            26.79951            33.72473            32.78438            23.56624            27.75541            25.96759            26.66804            35.04155            32.09519            28.72269            31.15097            27.11838            27.77072            33.27860            22.29306            28.57832            31.88691            25.97950            22.35879            29.16384            26.31402            21.78442            32.70969            28.60606            33.71664            29.90805            29.43013            21.90449            26.24371            25.40864            30.28717            28.38751            28.79373            24.77713            33.43121            27.12465            34.02769            29.95821            17.90940            28.24274            24.66454            32.85203            35.09133            31.33738            25.18908            24.51126            34.12713            28.39646            28.90116            25.96056            35.18466            31.49431            27.09107            32.59660            24.48042            34.22898            23.01650            31.61104            27.90054            31.18726            24.95270            34.05885            29.70203            21.87820            24.76618            22.47853            27.31131            32.41445            33.65829            27.51125            25.90453            34.50023            28.67915            33.89665            28.67181            32.56139            27.98368            29.98863            26.90278            27.15353            28.88483            25.92634            35.88634            33.73429            25.97163            27.93710            25.47737            27.20868            28.76033            25.94921            25.81749            20.82116            28.40291            26.37336            32.56675            28.30585            28.40308            25.36528            26.10879            20.64463            22.13763            32.78419            26.34128            20.28579            32.02653            23.63852            25.68371            30.18121            24.88321            32.14890            22.99248            27.80898            22.06392            30.22016            26.48897            28.45374            29.31464            22.48357            17.01456            28.51753            18.26160            27.34545            27.88391            27.57635            24.34586            26.93578            17.19342            26.02792            21.14643            33.61471            16.93245            27.96349            32.56603            29.05319            30.40860            24.58402            34.49249            29.88763            23.99761            28.29092            25.18260            28.39517            27.15329            28.09902            24.12978            27.10035            29.10691            23.02685            33.38479            25.36304            25.25777            28.43438            32.78742            25.69555            29.76278            18.79438            23.55673            28.53205            33.02005            27.02254            34.36021            27.13306            28.43709            28.61997            33.19859            27.37964            25.48535            28.36482            35.53556            22.88724            27.49744            31.26157            25.87318            34.08235            32.46900            26.25715            32.64883            30.14623            30.16558            26.43286            33.07297            27.68652            30.00953            29.36153            26.44845            28.24364            32.32752            25.83036            26.56315            19.65659            26.51903            32.62930            27.13216            26.82532            34.98118            29.50551            23.19080            33.63934            24.45408            28.13615            23.18019            31.85871            25.00897            28.42849            25.38307            25.81594            26.34619            33.06453            26.12767            27.59678            35.49685            35.18429            27.15160            27.41537            28.68137            19.60188            28.72366            36.53191            28.65834            16.85669            23.65323            32.08095            32.63998            31.21000            31.63327            33.36607            31.86480            30.49252            27.58616            24.62203            33.11557            23.72271            35.49006            35.22042            31.45306            35.42079            25.31246            31.33821            26.74426            32.59431            30.12755            28.51709            28.81398            34.09461            25.61908            28.75906            34.76819            25.06138            26.95307            31.43951            25.73313            24.53860            31.75722            23.24625            32.17235            18.73843            25.81860            35.70220            30.38285            28.00938            32.12498            28.54125            35.52644            24.20257            32.05669            22.00387            27.09810            27.22399            25.75071            24.94426            29.84421            32.73806            28.29335            32.77068            31.77476            35.00066            23.05879            33.60866            24.01471            31.15583            31.67344            27.67486            28.12324            32.77786            28.05841            27.65851            33.74244            25.78219            22.00016            29.47472            17.88368            32.53998            27.78666            18.18727            26.25517            26.01978            24.43943            28.91237            27.71761            22.55521            26.76893            29.66722            25.05299            18.75722            23.95231            34.44861            31.41702            30.59246            36.11250            34.49877            30.54327            21.42954            26.46129            28.55988            22.93768            26.67998            28.27319            35.42384            25.40766            32.88493            26.29566            26.37562            29.72915            28.48758            23.32806            29.79408            33.47978            29.02588            27.90750            27.24228            24.85900            36.08488            25.65658            28.93969            33.25627            28.46935            28.59421            32.84116            25.70821            25.18530            31.05915            26.42096            27.03581            28.36094            22.87258            35.44195            26.18793            26.79563            22.98752            27.86295            26.41401            25.24781            25.30443            18.52673            29.06726            25.76511            19.45673            22.90645            35.98745            25.27945            31.48629            25.65634            31.91111            29.22506            22.48639            21.93577            32.25099            29.63631            25.41283            27.16270            21.88456            25.22255            26.11841            28.33420            23.60457            22.52946            21.57925            24.01271            31.50730            25.75966            26.84250            27.43449            34.16744            27.99679            27.10654            24.58760            27.27974            25.46488            33.28404            22.16149            24.27359            32.89848            30.93195            29.58299            27.20628            32.39956            36.61767            35.08566            32.26840            32.81024            26.36805            25.56717            30.10187            23.56713            21.14306            35.52047            26.15570            25.44955            18.25407            27.42346            32.73027            27.96253            29.20178            33.81775            32.77907            23.41375            19.34642            35.15792            26.48293            33.87830            27.08053            32.32743            30.49879            22.84946            21.82773            33.41791            29.63351            32.50005            28.34616            28.40127            25.83674            32.95138            25.18819            29.40937            22.50334            29.90426            22.90681            24.58747            24.00675            31.96220            32.30056            25.13316            27.64804            28.78094            25.86382            33.37840            22.19691            28.81817            34.68468            30.53906            33.35965            32.91607            33.62717            28.62503            21.09887            21.34414            25.51895            25.55198            28.74730            24.36105            20.41551            33.43245            26.21456            23.41237            21.70622            24.40105            24.28722            32.92301            25.79277            33.48186            31.47834            36.22374            35.22012            29.20614            34.97068            31.93537            23.65709            28.40985            25.58913            32.12248            25.88872            32.29864            25.72920            28.57726            35.56533            32.96022            33.69775            32.61643            27.96448            18.59377            25.83746            30.66873            26.55177            31.45653            34.06118            17.46475            33.51882            27.09040            23.89655            28.08175            36.61411            27.13054            27.18960            31.92345            28.46118            18.37064            34.28199            30.73976            33.15526            23.05432            23.98615            22.78367            29.87329            33.06854            31.32722            26.36280            27.84224            27.06905            27.36343            35.85314            23.08632            17.08212            34.34034            29.91590            32.79456            27.05132            27.24379            21.85932            26.33888            33.51741            28.43499            27.23956            32.64349            26.61728            35.22554            26.66545            27.47493            32.96210            22.97256  