# vtk DataFile Version 3.0
Output from R3t
ASCII
DATASET UNSTRUCTURED_GRID
POINTS       8652 double
      0.50000000E-01     -0.50000000E-02      0.48500000E+00
      0.10000000E+00     -0.50000000E-02      0.48500000E+00
      0.15000000E+00     -0.50000000E-02      0.48500000E+00
      0.20000000E+00     -0.50000000E-02      0.48500000E+00
      0.25000000E+00     -0.50000000E-02      0.48500000E+00
      0.30000000E+00     -0.50000000E-02      0.48500000E+00
      0.35000000E+00     -0.50000000E-02      0.48500000E+00
      0.40000000E+00     -0.50000000E-02      0.48500000E+00
      0.50000000E-01      0.00000000E+00      0.42500000E+00
      0.10000000E+00      0.00000000E+00      0.42500000E+00
      0.15000000E+00      0.00000000E+00      0.42500000E+00
      0.20000000E+00      0.00000000E+00      0.42500000E+00
      0.25000000E+00      0.00000000E+00      0.42500000E+00
      0.30000000E+00      0.00000000E+00      0.42500000E+00
      0.35000000E+00      0.00000000E+00      0.42500000E+00
      0.40000000E+00      0.00000000E+00      0.42500000E+00
      0.50000000E-01      0.00000000E+00      0.37500000E+00
      0.10000000E+00      0.00000000E+00      0.37500000E+00
      0.15000000E+00      0.00000000E+00      0.37500000E+00
      0.20000000E+00      0.00000000E+00      0.37500000E+00
      0.25000000E+00      0.00000000E+00      0.37500000E+00
      0.30000000E+00      0.00000000E+00      0.37500000E+00
      0.35000000E+00      0.00000000E+00      0.37500000E+00
      0.40000000E+00      0.00000000E+00      0.37500000E+00
      0.50000000E-01      0.00000000E+00      0.32500000E+00
      0.10000000E+00      0.00000000E+00      0.32500000E+00
      0.15000000E+00      0.00000000E+00      0.32500000E+00
      0.20000000E+00      0.00000000E+00      0.32500000E+00
      0.25000000E+00      0.00000000E+00      0.32500000E+00
      0.30000000E+00      0.00000000E+00      0.32500000E+00
      0.35000000E+00      0.00000000E+00      0.32500000E+00
      0.40000000E+00      0.00000000E+00      0.32500000E+00
      0.50000000E-01      0.00000000E+00      0.27500000E+00
      0.10000000E+00      0.00000000E+00      0.27500000E+00
      0.15000000E+00      0.00000000E+00      0.27500000E+00
      0.20000000E+00      0.00000000E+00      0.27500000E+00
      0.25000000E+00      0.00000000E+00      0.27500000E+00
      0.30000000E+00      0.00000000E+00      0.27500000E+00
      0.35000000E+00      0.00000000E+00      0.27500000E+00
      0.40000000E+00      0.00000000E+00      0.27500000E+00
      0.50000000E-01      0.00000000E+00      0.22500000E+00
      0.10000000E+00      0.00000000E+00      0.22500000E+00
      0.15000000E+00      0.00000000E+00      0.22500000E+00
      0.20000000E+00      0.00000000E+00      0.22500000E+00
      0.25000000E+00      0.00000000E+00      0.22500000E+00
      0.30000000E+00      0.00000000E+00      0.22500000E+00
      0.35000000E+00      0.00000000E+00      0.22500000E+00
      0.40000000E+00      0.00000000E+00      0.22500000E+00
      0.50000000E-01      0.00000000E+00      0.17500000E+00
      0.10000000E+00      0.00000000E+00      0.17500000E+00
      0.15000000E+00      0.00000000E+00      0.17500000E+00
      0.20000000E+00      0.00000000E+00      0.17500000E+00
      0.50000000E-01      0.00000000E+00      0.12500000E+00
      0.10000000E+00      0.00000000E+00      0.12500000E+00
      0.15000000E+00      0.00000000E+00      0.12500000E+00
      0.20000000E+00      0.00000000E+00      0.12500000E+00
      0.25000000E+00      0.00000000E+00      0.12500000E+00
      0.30000000E+00      0.00000000E+00      0.12500000E+00
      0.35000000E+00      0.00000000E+00      0.12500000E+00
      0.40000000E+00      0.00000000E+00      0.12500000E+00
      0.50000000E-01      0.00000000E+00      0.75000000E-01
      0.10000000E+00      0.00000000E+00      0.75000000E-01
      0.15000000E+00      0.00000000E+00      0.75000000E-01
      0.20000000E+00      0.00000000E+00      0.75000000E-01
      0.25000000E+00      0.00000000E+00      0.75000000E-01
      0.30000000E+00      0.00000000E+00      0.75000000E-01
      0.35000000E+00      0.00000000E+00      0.75000000E-01
      0.40000000E+00      0.00000000E+00      0.75000000E-01
      0.00000000E+00      0.00000000E+00      0.00000000E+00
      0.45000000E+00      0.00000000E+00      0.00000000E+00
      0.00000000E+00      0.00000000E+00      0.50000000E+00
      0.45000000E+00      0.00000000E+00      0.50000000E+00
      0.00000000E+00     -0.30000000E-01      0.00000000E+00
      0.45000000E+00     -0.30000000E-01      0.00000000E+00
      0.00000000E+00     -0.30000000E-01      0.50000000E+00
      0.45000000E+00     -0.30000000E-01      0.50000000E+00
      0.00000000E+00     -0.30000000E-01      0.10000000E-01
      0.00000000E+00     -0.30000000E-01      0.20000000E-01
      0.00000000E+00     -0.30000000E-01      0.30000000E-01
      0.00000000E+00     -0.30000000E-01      0.40000000E-01
      0.00000000E+00     -0.30000000E-01      0.50000000E-01
      0.00000000E+00     -0.30000000E-01      0.60000000E-01
      0.00000000E+00     -0.30000000E-01      0.70000000E-01
      0.00000000E+00     -0.30000000E-01      0.80000000E-01
      0.00000000E+00     -0.30000000E-01      0.90000000E-01
      0.00000000E+00     -0.30000000E-01      0.10000000E+00
      0.00000000E+00     -0.30000000E-01      0.11000000E+00
      0.00000000E+00     -0.30000000E-01      0.12000000E+00
      0.00000000E+00     -0.30000000E-01      0.13000000E+00
      0.00000000E+00     -0.30000000E-01      0.14000000E+00
      0.00000000E+00     -0.30000000E-01      0.15000000E+00
      0.00000000E+00     -0.30000000E-01      0.16000000E+00
      0.00000000E+00     -0.30000000E-01      0.17000000E+00
      0.00000000E+00     -0.30000000E-01      0.18000000E+00
      0.00000000E+00     -0.30000000E-01      0.19000000E+00
      0.00000000E+00     -0.30000000E-01      0.20000000E+00
      0.00000000E+00     -0.30000000E-01      0.21000000E+00
      0.00000000E+00     -0.30000000E-01      0.22000000E+00
      0.00000000E+00     -0.30000000E-01      0.23000000E+00
      0.00000000E+00     -0.30000000E-01      0.24000000E+00
      0.00000000E+00     -0.30000000E-01      0.25000000E+00
      0.00000000E+00     -0.30000000E-01      0.26000000E+00
      0.00000000E+00     -0.30000000E-01      0.27000000E+00
      0.00000000E+00     -0.30000000E-01      0.28000000E+00
      0.00000000E+00     -0.30000000E-01      0.29000000E+00
      0.00000000E+00     -0.30000000E-01      0.30000000E+00
      0.00000000E+00     -0.30000000E-01      0.31000000E+00
      0.00000000E+00     -0.30000000E-01      0.32000000E+00
      0.00000000E+00     -0.30000000E-01      0.33000000E+00
      0.00000000E+00     -0.30000000E-01      0.34000000E+00
      0.00000000E+00     -0.30000000E-01      0.35000000E+00
      0.00000000E+00     -0.30000000E-01      0.36000000E+00
      0.00000000E+00     -0.30000000E-01      0.37000000E+00
      0.00000000E+00     -0.30000000E-01      0.38000000E+00
      0.00000000E+00     -0.30000000E-01      0.39000000E+00
      0.00000000E+00     -0.30000000E-01      0.40000000E+00
      0.00000000E+00     -0.30000000E-01      0.41000000E+00
      0.00000000E+00     -0.30000000E-01      0.42000000E+00
      0.00000000E+00     -0.30000000E-01      0.43000000E+00
      0.00000000E+00     -0.30000000E-01      0.44000000E+00
      0.00000000E+00     -0.30000000E-01      0.45000000E+00
      0.00000000E+00     -0.30000000E-01      0.46000000E+00
      0.00000000E+00     -0.30000000E-01      0.47000000E+00
      0.00000000E+00     -0.30000000E-01      0.48000000E+00
      0.00000000E+00     -0.30000000E-01      0.49000000E+00
      0.10000000E-01     -0.30000000E-01      0.50000000E+00
      0.20000000E-01     -0.30000000E-01      0.50000000E+00
      0.30000000E-01     -0.30000000E-01      0.50000000E+00
      0.40000000E-01     -0.30000000E-01      0.50000000E+00
      0.50000000E-01     -0.30000000E-01      0.50000000E+00
      0.60000000E-01     -0.30000000E-01      0.50000000E+00
      0.70000000E-01     -0.30000000E-01      0.50000000E+00
      0.80000000E-01     -0.30000000E-01      0.50000000E+00
      0.90000000E-01     -0.30000000E-01      0.50000000E+00
      0.10000000E+00     -0.30000000E-01      0.50000000E+00
      0.11000000E+00     -0.30000000E-01      0.50000000E+00
      0.12000000E+00     -0.30000000E-01      0.50000000E+00
      0.13000000E+00     -0.30000000E-01      0.50000000E+00
      0.14000000E+00     -0.30000000E-01      0.50000000E+00
      0.15000000E+00     -0.30000000E-01      0.50000000E+00
      0.16000000E+00     -0.30000000E-01      0.50000000E+00
      0.17000000E+00     -0.30000000E-01      0.50000000E+00
      0.18000000E+00     -0.30000000E-01      0.50000000E+00
      0.19000000E+00     -0.30000000E-01      0.50000000E+00
      0.20000000E+00     -0.30000000E-01      0.50000000E+00
      0.21000000E+00     -0.30000000E-01      0.50000000E+00
      0.22000000E+00     -0.30000000E-01      0.50000000E+00
      0.23000000E+00     -0.30000000E-01      0.50000000E+00
      0.24000000E+00     -0.30000000E-01      0.50000000E+00
      0.25000000E+00     -0.30000000E-01      0.50000000E+00
      0.26000000E+00     -0.30000000E-01      0.50000000E+00
      0.27000000E+00     -0.30000000E-01      0.50000000E+00
      0.28000000E+00     -0.30000000E-01      0.50000000E+00
      0.29000000E+00     -0.30000000E-01      0.50000000E+00
      0.30000000E+00     -0.30000000E-01      0.50000000E+00
      0.31000000E+00     -0.30000000E-01      0.50000000E+00
      0.32000000E+00     -0.30000000E-01      0.50000000E+00
      0.33000000E+00     -0.30000000E-01      0.50000000E+00
      0.34000000E+00     -0.30000000E-01      0.50000000E+00
      0.35000000E+00     -0.30000000E-01      0.50000000E+00
      0.36000000E+00     -0.30000000E-01      0.50000000E+00
      0.37000000E+00     -0.30000000E-01      0.50000000E+00
[...]
POINT_DATA      8652
CELL_DATA     32557
SCALARS Resistivity(ohm.m) double 1
LOOKUP_TABLE default
            22.46560            22.42670            21.20330            26.43980            24.49640            34.86910            30.99880            27.46800            24.12730            31.53210            28.30460            37.10980            35.38540            21.34300            19.11400            19.51930            17.56560            31.88140            26.00310            29.02950            30.45560            24.63480            14.27490            30.06910            22.12810            24.58080            25.81940            23.21500            35.56340            16.46720            23.88490            24.82810            24.12660            26.19240            24.11690            22.48310            20.75720            36.80680            14.34050            24.61210            22.37230            29.00630            23.44920            21.17630            27.20420            25.02230            25.02820            23.85260            25.83460            30.91970            19.78200            36.73670            33.73290            22.61510            23.54480            22.31390            33.08660            31.92680            33.11270            21.47880            33.86490            16.97960            20.67750            22.20620            31.40150            22.61620            33.79310            28.57710            35.54810            27.32210            23.08580            17.91690            22.44680            33.92480            33.26790            22.19410            27.71580            28.77340            16.20030            17.18100            32.21540            24.83210            26.28110            23.61090            24.23740            23.45850            30.38730            33.56020            22.54090            36.71100            24.43920            31.49310            32.55490            23.42200            31.79180            29.66470            29.61720            24.09420            20.97650            29.52050            29.86470            19.31680            25.30720            23.98240            25.61910            24.85120            25.23530            21.51700            36.04880            19.30340            31.96770            30.98740            23.94190            30.84820            23.31520            23.61870            23.29950            34.85860            21.19190            26.52720            26.73040            25.75000            27.98160            28.83700            28.81970            28.90730            26.73450            30.02730            22.06810            22.61400            31.59900            22.73340            23.77400            26.66840            36.60240            23.08410            24.08280            32.53590            24.54910            21.86370            26.47640            28.89670            32.24180            22.35530            25.48580            31.55620            25.63540            17.02710            24.08180            12.63480            21.54900            16.34120            19.10630            26.48960            25.07330            18.44970            20.70450            28.14520            24.46840            33.27840            19.78790            27.03860            14.46550            35.62070            30.76920            22.00270            30.91010            23.73390            28.64250            20.84030            29.93520            29.62910            24.08880            23.29010            27.88310            25.17820            25.58380            25.40890            23.79000            24.15520            24.52810            27.18940            26.71650            31.42430            28.01630            33.23990            24.50020            23.04560            26.94980            28.68330            22.79900            15.60140            27.83150            25.58640            31.13090            31.39280            23.36530            33.52870            24.25200            23.82020            20.51140            39.35200            22.78110            30.33780            25.31370            26.02020            23.52790            26.12820            27.10160            25.07660            23.89950            24.48490            25.69650            26.75950            24.03390            24.17780            25.28330            28.02920            23.01070            23.56740            23.85680            27.71440            21.20010            29.54710            27.98310            26.61170            35.75340            25.89910            29.53450            25.93250            29.27940            23.42120            20.70870            31.20950            20.21260            24.81780            31.36710            25.70550            26.88980            22.80310            25.14100            28.69040            25.04080            20.92560            24.59950            34.55270            26.47540            24.50330            32.51540            25.00750            25.07880            28.83840            21.65700            18.35250            29.50790            26.27440            25.55780            18.66300            29.54590            29.17730            19.58480            24.78640            18.61230            24.70250            23.18430            25.11400            31.77490            14.23950            17.82680            28.01480            22.39540            17.13450            14.59470            28.43290            18.95340            27.20010            37.60260            25.50180            22.59360            22.92130            35.10720            24.00670            25.14530            24.19390            17.56260            25.69080            23.18400            21.62180            22.30770            28.05880            30.35320            24.22860            25.21180            25.75510            32.28930            28.53240            30.85770            25.19190            23.22470            25.40990            24.62030            21.65030            30.73560            22.72200            18.60600            20.40460            22.37000            19.51930            26.56870            39.61330            16.50770            29.63740            20.47740            25.53630            32.67640            23.66200            23.56750            29.36270            27.40720            30.37740            24.00290            26.18840            27.59840            22.84370            24.96060            32.38750            24.02110            20.41090            22.52890            25.95780            24.15530            23.51600            22.01470            26.83780            33.98350            25.81020            23.59650            21.73220            22.86320            36.31300            22.73960            30.85000            28.85370            34.05480            34.71740            22.71870            34.40820            22.43770            34.76550            25.02660            22.30220            33.61470            23.47640            24.48730            25.36580            33.06470            25.07120            23.95940            18.71930            11.17790            32.01450            26.45650            36.59280            26.65870            28.57820            32.56380            29.45390            28.48990            36.95350            21.20510            35.55020            25.28260            25.19820            31.52990            22.94390            25.59630            25.81650            23.13680            32.63070            20.41460            22.52230            25.11110            30.69430            11.42170            24.95580            24.61240            21.10430            27.86730            29.14390            24.89620            36.59640            38.75260            27.77390            26.82090            23.56190            26.49730            38.28830            33.30330            20.50170            24.10840            24.85630            22.49220            26.71850            31.28600            28.14300            29.82590            31.56650            26.15060            25.54320            23.18980            22.88780            22.76280            24.67440            26.48490            10.56800            25.95940            21.80850            25.63560            24.90820            27.80690            21.00000            28.21170            24.26910            27.84390            31.05390            28.07910            25.52150            24.46990            25.56510            34.03220            24.80980            28.16410            28.25050            25.79820            37.31210            25.95410            27.13330            36.39050            23.69240            28.86640            31.20940            26.73050            39.16430            35.21360            23.25780            28.08740            25.51270            25.29520            22.66860            37.24580            33.34610            34.26920            38.90810            32.38810            30.81860            21.05500            24.86950            36.05720            33.00760            21.76140            23.65020            25.73740            23.37500            32.24350            30.32920            26.56150            28.19420            22.94400            27.26020            29.37820            20.33750            27.20510            31.00660            24.27360            24.06850            26.27900            25.84090            18.75940            33.39570            25.96910            35.45430            22.88640            23.58640            18.54050            25.95010            22.84370            25.66840            22.44300            25.43330            20.93770            30.07460            28.19050            32.25950            25.69350            16.50350            23.64680            21.23240            30.22960            36.62730            30.75100            21.44160            24.19610            31.82870            25.01980            26.16210            23.97990            32.25800            28.64830            24.68550            33.22990            22.18410            36.30090            23.31510            29.58470            24.28690            28.67490            24.14990            31.87820            23.79950            19.85530            24.23770            22.94410            25.27400            29.39750            35.40200            24.83790            21.79310            29.12730            25.83480            39.19570            23.81460            28.78590            24.12320            33.74140            25.67120            26.08310            23.98300            25.75420            36.80920            31.54720            23.69830            23.00700            20.93080            23.59920            25.20340            20.95000            23.23210            16.59740            24.93600            25.63490            28.62050            26.26940            26.48180            27.14510            22.28270            18.41080            22.24150            30.05540            24.93340            17.81500            32.95250            21.62330            25.03410            23.77070            22.12530            30.14350            21.58510            26.38890            19.75790            24.47130            25.16290            24.86550            23.36480            19.17600            13.55940            27.64370            16.73480            23.31170            23.98120            23.79640            21.64390            28.27080            12.60430            24.14910            20.62550            30.40890            12.08140            25.38170            30.07790            21.42540            24.60720            21.60740            36.78090            22.74430            24.16130            25.92590            22.67200            24.98250            25.19370            26.25310            24.72680            25.08900            22.92120            18.60840            27.55120            22.76270            22.12270            24.99320            28.78530            23.48760            30.92920            16.90330            22.95710            27.76500            27.99110            28.70050            33.22230            23.25890            24.87760            23.27510            28.87340            22.53380            25.85050            26.94320            36.54240            22.32950            24.34780            30.79480            20.96890            28.89760            33.45930            26.26040            26.07600            24.22970            27.84720            25.55850            30.45670            25.05000            24.53910            28.77380            22.42130            24.50150            31.81180            21.99000            26.30470            18.80870            22.62760            35.82440            28.39320            23.94410            34.97360            25.85400            19.11240            31.91400            25.37720            23.52320            21.40440            30.62620            25.64250            24.88790            25.99120            21.95620            25.10460            36.47090            25.14130            24.90670            34.29110            32.18490            25.66600            23.97890            23.80630            17.44710            26.51420            35.95790            25.98380            13.11480            22.19090            31.42210            33.19450            29.46310            27.81460            36.23440            34.06570            27.30400            28.05970            20.93820            30.05160            22.83660            33.96000            32.10820            26.27850            34.85880            21.90210            29.30920            23.71580            30.06490            34.41460            27.77410            24.62770            32.65340            25.07830            28.81450            30.45390            25.26440            23.48660            31.12360            23.90890            25.43650            33.61150            19.44810            34.48960            17.87270            23.25080            34.63100            27.46740            23.35610            31.45100            27.69160            35.37100            23.78160            34.01050            14.57960            24.77190            24.76450            24.25720            34.79620            24.90170            30.38100            26.44870            32.58910            29.51160            34.60800            19.43550            29.79230            20.96220            27.10880            30.69440            24.00640            26.29410            25.31590            23.06630            27.22690            36.07310            23.61300            20.20940            25.89080            10.61980            29.56480            26.05070            15.23380            24.76980            23.19570            24.63420            27.49900            24.94130            16.22570            25.35030            22.68900            23.05290            16.30660            22.52140            33.92160            27.56400            33.41140            37.48360            29.03560            27.37830            18.00690            22.93320            27.43530            20.92980            23.71330            25.44550            33.62460            24.27920            31.00320            22.92830            25.65020            27.29590            24.19400            21.33920            23.80020            29.56310            29.84720            23.11100            23.44430            20.71540            33.11950            23.98950            27.45710            27.74190            28.36920            22.61330            27.08730            23.95170            25.10500            28.22040            29.90190            23.67910            23.22030            25.82740            27.78220            25.23760            25.67010            22.32460            23.13320            25.70870            22.57250            22.64580            16.66710            24.07420            23.97650            16.31600            19.10110            34.60820            23.21760            29.09970            22.12470            29.33880            27.28380            20.72750            18.74780            31.21510            27.32850            26.91480            25.36740            19.63180            24.09410            46.47390            25.96410            22.41540            19.39580            22.66950            22.09540            27.05230            24.09340            24.32730            26.64130            32.96580            22.64320            24.95360            24.86710            30.45510            25.16430            35.39350            19.92200            24.10940            31.99360            27.63010            29.11480            25.58020            29.81650            36.08850            32.14420            29.44980            33.71450            24.24040            22.21820            26.09560            21.77550            16.44840            32.66270            21.71890            24.03730            15.87120            26.13740            31.85530            26.22430            23.62240            32.57350            29.30320            19.50530            20.19950            34.32750            24.67460            35.30630            22.63860            30.36600            30.95140            18.74630            19.43860            27.71080            27.39020            30.06680            29.33240            24.37650            20.08910            32.50330            25.06800            25.40020            18.66220            27.53940            21.63350            21.55230            25.38060            29.99530            28.98520            26.31580            23.29120            26.11000            24.45970            30.50920            23.10280            27.85610            35.23120            25.48900            31.70830            33.20170            31.45490            25.92440            16.81350            20.50380            20.92640            24.49800            26.48780            21.48480            15.71290            27.63490            23.22650            19.63470            19.29540            22.40690            15.21180            32.24060            24.72080            33.35290            26.96670            37.60950            36.11440            26.13990            35.85650            30.28040            17.14160            28.06850            24.05610            30.77180            21.42630            29.55760            26.27150            28.70010            33.59940            27.21980            31.18210            33.38850            23.17460            19.34560            26.79220            27.18510            24.23660            28.36110            31.87560            18.72450            29.27870            26.08300            24.22060            23.36770            36.09660            23.65480            24.76980            30.37950            25.11080            18.19150            32.70780            26.21330            29.77970            22.55820            22.52350            20.35560            22.94020            33.55170            26.15980            26.21920            24.89130            29.67510            24.51230            31.19820            19.16760            14.73940            32.69770            31.28260            33.68800            25.06230            26.61950            21.67620            21.92590            31.33580            24.85600            26.28390            32.72210            27.71850            34.77350            26.74040            23.05980            28.22780            21.12280  