# vtk DataFile Version 3.0
Output from R3t
ASCII
DATASET UNSTRUCTURED_GRID
POINTS       8966 double
      0.50000000E-01     -0.50000000E-02      0.48500000E+00
      0.10000000E+00     -0.50000000E-02      0.48500000E+00
      0.15000000E+00     -0.50000000E-02      0.48500000E+00
      0.20000000E+00     -0.50000000E-02      0.48500000E+00
      0.25000000E+00     -0.50000000E-02      0.48500000E+00
      0.30000000E+00     -0.50000000E-02      0.48500000E+00
      0.35000000E+00     -0.50000000E-02      0.48500000E+00
      0.40000000E+00     -0.50000000E-02      0.48500000E+00
      0.50000000E-01      0.00000000E+00      0.42500000E+00
      0.10000000E+00      0.00000000E+00      0.42500000E+00
      0.15000000E+00      0.00000000E+00      0.42500000E+00
      0.20000000E+00      0.00000000E+00      0.42500000E+00
      0.25000000E+00      0.00000000E+00      0.42500000E+00
      0.30000000E+00      0.00000000E+00      0.42500000E+00
      0.35000000E+00      0.00000000E+00      0.42500000E+00
      0.40000000E+00      0.00000000E+00      0.42500000E+00
      0.50000000E-01      0.00000000E+00      0.37500000E+00
      0.10000000E+00      0.00000000E+00      0.37500000E+00
      0.15000000E+00      0.00000000E+00      0.37500000E+00
      0.20000000E+00      0.00000000E+00      0.37500000E+00
      0.25000000E+00      0.00000000E+00      0.37500000E+00
      0.30000000E+00      0.00000000E+00      0.37500000E+00
      0.35000000E+00      0.00000000E+00      0.37500000E+00
      0.40000000E+00      0.00000000E+00      0.37500000E+00
      0.50000000E-01      0.00000000E+00      0.32500000E+00
      0.10000000E+00      0.00000000E+00      0.32500000E+00
      0.15000000E+00      0.00000000E+00      0.32500000E+00
      0.20000000E+00      0.00000000E+00      0.32500000E+00
      0.25000000E+00      0.00000000E+00      0.32500000E+00
      0.30000000E+00      0.00000000E+00      0.32500000E+00
      0.35000000E+00      0.00000000E+00      0.32500000E+00
      0.40000000E+00      0.00000000E+00      0.32500000E+00
      0.50000000E-01      0.00000000E+00      0.27500000E+00
      0.10000000E+00      0.00000000E+00      0.27500000E+00
      0.15000000E+00      0.00000000E+00      0.27500000E+00
      0.20000000E+00      0.00000000E+00      0.27500000E+00
      0.25000000E+00      0.00000000E+00      0.27500000E+00
      0.30000000E+00      0.00000000E+00      0.27500000E+00
      0.35000000E+00      0.00000000E+00      0.27500000E+00
      0.40000000E+00      0.00000000E+00      0.27500000E+00
      0.50000000E-01      0.00000000E+00      0.22500000E+00
      0.10000000E+00      0.00000000E+00      0.22500000E+00
      0.15000000E+00      0.00000000E+00      0.22500000E+00
      0.20000000E+00      0.00000000E+00      0.22500000E+00
      0.25000000E+00      0.00000000E+00      0.22500000E+00
      0.30000000E+00      0.00000000E+00      0.22500000E+00
      0.35000000E+00      0.00000000E+00      0.22500000E+00
      0.40000000E+00      0.00000000E+00      0.22500000E+00
      0.50000000E-01      0.00000000E+00      0.17500000E+00
      0.10000000E+00      0.00000000E+00      0.17500000E+00
      0.15000000E+00      0.00000000E+00      0.17500000E+00
      0.20000000E+00      0.00000000E+00      0.17500000E+00
      0.25000000E+00      0.00000000E+00      0.17500000E+00
      0.30000000E+00      0.00000000E+00      0.17500000E+00
      0.35000000E+00      0.00000000E+00      0.17500000E+00
      0.40000000E+00      0.00000000E+00      0.17500000E+00
      0.50000000E-01      0.00000000E+00      0.12500000E+00
      0.10000000E+00      0.00000000E+00      0.12500000E+00
      0.15000000E+00      0.00000000E+00      0.12500000E+00
      0.20000000E+00      0.00000000E+00      0.12500000E+00
      0.25000000E+00      0.00000000E+00      0.12500000E+00
      0.30000000E+00      0.00000000E+00      0.12500000E+00
      0.35000000E+00      0.00000000E+00      0.12500000E+00
      0.40000000E+00      0.00000000E+00      0.12500000E+00
      0.50000000E-01      0.00000000E+00      0.75000000E-01
      0.10000000E+00      0.00000000E+00      0.75000000E-01
      0.15000000E+00      0.00000000E+00      0.75000000E-01
      0.20000000E+00      0.00000000E+00      0.75000000E-01
      0.25000000E+00      0.00000000E+00      0.75000000E-01
      0.30000000E+00      0.00000000E+00      0.75000000E-01
      0.35000000E+00      0.00000000E+00      0.75000000E-01
      0.40000000E+00      0.00000000E+00      0.75000000E-01
      0.00000000E+00      0.00000000E+00      0.00000000E+00
      0.45000000E+00      0.00000000E+00      0.00000000E+00
      0.00000000E+00      0.00000000E+00      0.50000000E+00
      0.45000000E+00      0.00000000E+00      0.50000000E+00
      0.00000000E+00     -0.30000000E-01      0.00000000E+00
      0.45000000E+00     -0.30000000E-01      0.00000000E+00
      0.00000000E+00     -0.30000000E-01      0.50000000E+00
      0.45000000E+00     -0.30000000E-01      0.50000000E+00
      0.11241060E-01      0.00000000E+00      0.11242680E-01
      0.64991060E-01      0.00000000E+00      0.11242680E-01
      0.11874106E+00      0.00000000E+00      0.11242680E-01
      0.17249106E+00      0.00000000E+00      0.11242680E-01
      0.22624106E+00      0.00000000E+00      0.11242680E-01
      0.27999106E+00      0.00000000E+00      0.11242680E-01
      0.33374106E+00      0.00000000E+00      0.11242680E-01
      0.38749106E+00      0.00000000E+00      0.11242680E-01
      0.44124106E+00      0.00000000E+00      0.11242680E-01
      0.11241060E-01      0.00000000E+00      0.64992680E-01
      0.64991060E-01      0.00000000E+00      0.64992680E-01
      0.11874106E+00      0.00000000E+00      0.64992680E-01
      0.17249106E+00      0.00000000E+00      0.64992680E-01
      0.22624106E+00      0.00000000E+00      0.64992680E-01
      0.27999106E+00      0.00000000E+00      0.64992680E-01
      0.33374106E+00      0.00000000E+00      0.64992680E-01
      0.38749106E+00      0.00000000E+00      0.64992680E-01
      0.44124106E+00      0.00000000E+00      0.64992680E-01
      0.11241060E-01      0.00000000E+00      0.11874268E+00
      0.64991060E-01      0.00000000E+00      0.11874268E+00
      0.11874106E+00      0.00000000E+00      0.11874268E+00
      0.17249106E+00      0.00000000E+00      0.11874268E+00
      0.22624106E+00      0.00000000E+00      0.11874268E+00
      0.27999106E+00      0.00000000E+00      0.11874268E+00
      0.33374106E+00      0.00000000E+00      0.11874268E+00
      0.38749106E+00      0.00000000E+00      0.11874268E+00
      0.44124106E+00      0.00000000E+00      0.11874268E+00
      0.11241060E-01      0.00000000E+00      0.17249268E+00
      0.64991060E-01      0.00000000E+00      0.17249268E+00
      0.11874106E+00      0.00000000E+00      0.17249268E+00
      0.17249106E+00      0.00000000E+00      0.17249268E+00
      0.22624106E+00      0.00000000E+00      0.17249268E+00
      0.27999106E+00      0.00000000E+00      0.17249268E+00
      0.33374106E+00      0.00000000E+00      0.17249268E+00
      0.38749106E+00      0.00000000E+00      0.17249268E+00
      0.44124106E+00      0.00000000E+00      0.17249268E+00
      0.11241060E-01      0.00000000E+00      0.22624268E+00
      0.64991060E-01      0.00000000E+00      0.22624268E+00
      0.11874106E+00      0.00000000E+00      0.22624268E+00
      0.17249106E+00      0.00000000E+00      0.22624268E+00
      0.22624106E+00      0.00000000E+00      0.22624268E+00
      0.27999106E+00      0.00000000E+00      0.22624268E+00
      0.33374106E+00      0.00000000E+00      0.22624268E+00
      0.38749106E+00      0.00000000E+00      0.22624268E+00
      0.44124106E+00      0.00000000E+00      0.22624268E+00
      0.11241060E-01      0.00000000E+00      0.27999268E+00
      0.64991060E-01      0.00000000E+00      0.27999268E+00
      0.11874106E+00      0.00000000E+00      0.27999268E+00
      0.17249106E+00      0.00000000E+00      0.27999268E+00
      0.22624106E+00      0.00000000E+00      0.27999268E+00
      0.27999106E+00      0.00000000E+00      0.27999268E+00
      0.33374106E+00      0.00000000E+00      0.27999268E+00
      0.38749106E+00      0.00000000E+00      0.27999268E+00
      0.44124106E+00      0.00000000E+00      0.27999268E+00
      0.11241060E-01      0.00000000E+00      0.33374268E+00
      0.64991060E-01      0.00000000E+00      0.33374268E+00
      0.11874106E+00      0.00000000E+00      0.33374268E+00
      0.17249106E+00      0.00000000E+00      0.33374268E+00
      0.22624106E+00      0.00000000E+00      0.33374268E+00
      0.27999106E+00      0.00000000E+00      0.33374268E+00
      0.33374106E+00      0.00000000E+00      0.33374268E+00
      0.38749106E+00      0.00000000E+00      0.33374268E+00
      0.44124106E+00      0.00000000E+00      0.33374268E+00
      0.11241060E-01      0.00000000E+00      0.38749268E+00
      0.64991060E-01      0.00000000E+00      0.38749268E+00
      0.11874106E+00      0.00000000E+00      0.38749268E+00
      0.17249106E+00      0.00000000E+00      0.38749268E+00
      0.22624106E+00      0.00000000E+00      0.38749268E+00
      0.27999106E+00      0.00000000E+00      0.38749268E+00
      0.33374106E+00      0.00000000E+00      0.38749268E+00
      0.38749106E+00      0.00000000E+00      0.38749268E+00
      0.44124106E+00      0.00000000E+00      0.38749268E+00
      0.11241060E-01      0.00000000E+00      0.44124268E+00
      0.64991060E-01      0.00000000E+00      0.44124268E+00
      0.11874106E+00      0.00000000E+00      0.44124268E+00
      0.17249106E+00      0.00000000E+00      0.44124268E+00
      0.22624106E+00      0.00000000E+00      0.44124268E+00
      0.27999106E+00      0.00000000E+00      0.44124268E+00
      0.33374106E+00      0.00000000E+00      0.44124268E+00
      0.38749106E+00      0.00000000E+00      0.44124268E+00
      0.44124106E+00      0.00000000E+00      0.44124268E+00
      0.11241060E-01      0.00000000E+00      0.49499268E+00
[...]
POINT_DATA      8966
CELL_DATA     34178
SCALARS Resistivity(ohm.m) double 1
LOOKUP_TABLE default
            29.48880            23.78981            33.32736            28.22231            27.56011            27.00395            32.47468            30.24883            32.72875            36.77735            28.61250            30.51394            27.50079            27.09770            30.25058            30.97342            44.56501            26.47748            29.29146            33.28590            33.13995            28.07745            36.63152            32.61430            32.27734            42.11449            36.40403            36.84575            31.79291            46.17784            30.10186            35.70886            27.17412            35.64593            43.41768            28.34035            31.82588            36.77047            30.45823            24.19764            31.32202            28.63070            36.63495            41.93428            32.50833            29.70122            28.45376            35.73462            32.01016            34.64746            35.42055            27.63972            24.72232            24.03606            30.36723            36.27662            31.71097            26.85956            29.56171            35.89018            26.68048            32.27615            30.18901            27.64979            31.60845            49.02009            38.87022            35.81376            36.31498            31.75086            41.92582            52.26168            32.14060            29.41510            31.08898            24.06492            52.01551            31.15365            34.36534            38.67563            33.28705            29.07126            24.09567            39.50582            39.47733            30.44576            26.35207            32.69806            27.96552            39.87136            31.49899            31.18693            29.46202            44.12089            30.72338            31.55816            44.88944            24.93570            44.98428            43.52681            29.47166            35.80522            27.77949            33.65556            35.94734            24.06378            24.52824            43.36901            35.77988            32.22536            32.26692            32.29476            27.49449            32.18260            39.08055            31.41865            32.53022            34.48277            24.38747            29.60553            27.36245            31.84370            36.42358            29.58271            26.95562            34.52588            29.43622            32.84202            38.20363            31.05619            43.20984            28.86832            28.00457            28.51847            30.37385            28.26677            41.91494            27.18417            31.92307            29.80864            31.60591            27.48771            32.51059            32.05651            27.98265            31.40882            25.84694            36.13288            29.11237            26.47353            35.81233            27.19475            27.89446            28.14887            32.07789            26.93371            36.67706            39.76301            28.28300            27.20340            31.59330            30.29346            29.82213            25.95593            40.78656            42.00840            47.24082            30.66061            42.22015            36.53860            33.97703            31.26398            42.06512            26.17940            33.07463            25.91697            30.73933            28.67479            30.49897            28.66118            44.31681            30.38987            37.15695            25.42690            28.91631            24.47288            33.30746            27.20038            27.48174            31.46022            33.25368            31.00678            30.87288            25.78865            33.70482            36.36890            29.19573            28.34564            27.78725            22.95361            36.11128            30.25298            29.10335            29.79384            23.63435            28.09740            28.57624            34.44698            27.79796            27.17844            42.59613            34.47794            29.57434            36.04493            25.79072            28.60270            27.17450            31.84838            32.64619            33.69457            30.12042            38.51011            36.01528            34.23658            27.76797            34.72124            42.51225            26.87899            28.56460            28.90010            31.62920            30.97486            40.41462            35.42574            41.26575            27.75562            43.43413            45.09295            38.84004            45.49936            32.43744            32.53542            39.37685            29.87989            31.04538            32.30568            37.66488            32.49619            30.38930            31.86414            29.01078            29.70867            25.63944            37.49866            30.91700            28.05765            27.59178            40.68680            27.51929            43.79874            26.43851            41.82059            28.09737            33.39244            26.75120            34.54558            29.70978            30.48179            26.68288            34.42504            24.47394            28.71030            31.54113            26.69066            43.59660            45.61225            30.38815            52.45807            44.66243            36.14714            39.11433            32.62207            32.28031            28.82913            25.98171            30.79153            27.14616            40.83486            34.41115            31.79609            32.44157            30.67218            28.94601            42.54283            26.42297            30.62588            23.74576            24.19596            42.69052            31.71108            29.37002            40.61189            52.16186            30.01488            26.53372            28.03348            27.62350            30.79300            30.23307            32.63939            32.37388            27.45183            28.90363            29.92656            29.99834            27.44313            40.60828            30.58732            29.46475            28.03528            33.02638            29.93768            35.65195            30.49994            27.68639            31.17097            41.98091            29.90103            28.21850            28.12098            37.68218            29.77835            26.63999            37.07321            42.24078            44.39994            36.44907            26.94848            29.86157            29.23111            26.28686            29.85210            44.79040            44.25981            27.37928            29.36510            30.45154            29.96888            27.54538            35.12225            27.24422            31.32468            39.89495            27.68309            34.97253            27.72242            26.90688            24.30545            26.36190            33.25995            40.15233            23.37619            35.74793            26.84411            28.34028            28.09307            40.70288            42.82637            28.58533            25.37738            33.10342            35.61778            28.06983            34.34413            31.49880            28.39215            31.75494            32.52181            37.64393            29.28237            33.03067            23.64053            30.31520            34.04679            27.30393            25.65702            28.50592            35.58397            34.81995            31.75991            32.09051            32.16817            36.59003            23.66194            39.03945            29.64581            29.77690            31.64215            31.04208            24.65849            32.27201            41.42981            28.36575            26.45304            28.14790            28.70202            26.76575            28.83213            38.33879            34.99771            24.36138            28.02216            28.59401            35.57232            50.89624            31.13154            29.00183            27.72853            35.46577            28.13482            32.18196            27.54617            28.56686            27.96049            35.23079            35.62884            44.83140            47.85072            33.92914            41.25598            30.95869            32.14614            41.57823            36.87908            32.64811            29.14856            33.98293            25.95262            32.99878            23.13891            44.37553            26.54683            40.27698            24.04987            27.10717            32.62024            40.50172            40.52120            33.16931            31.68934            24.70922            27.66945            33.20862            29.00576            30.52960            38.23555            39.74091            29.47752            31.88264            29.59177            31.49923            36.12033            28.37598            25.86906            28.22044            28.61034            34.98222            24.84880            26.17995            31.36754            36.01687            31.89269            26.61377            24.46564            51.38187            28.46681            27.97672            36.03265            36.80798            34.54189            39.19757            28.01746            32.39585            24.00724            32.29008            35.38060            35.69832            26.46270            32.05963            35.93888            39.56463            30.42105            31.48286            28.69917            28.64943            34.43034            32.97053            30.07517            30.77572            26.29025            35.75024            33.36396            30.95291            35.98592            25.44280            35.91450            32.51820            34.58676            33.00160            31.47657            39.02944            29.53195            39.15842            35.45683            34.08968            26.88888            34.68635            34.43103            36.84457            35.68774            32.10298            27.43675            33.12181            34.18499            27.29780            31.45260            30.90744            27.90842            28.05501            35.25599            30.44633            43.38825            29.35293            28.75405            28.71646            30.08449            26.88206            31.76804            30.74623            29.02970            30.06810            32.42100            27.34010            27.67626            36.80236            28.27255            33.72865            32.70030            29.94522            28.80897            42.70675            37.88553            46.11928            34.18531            29.26340            34.36870            24.98320            41.20128            33.02254            25.97612            35.91820            29.38956            40.76103            30.97323            28.35146            47.88849            30.05694            30.99037            28.80819            48.10221            33.04961            35.81335            31.03779            42.09668            27.22752            32.05507            34.09680            31.10575            31.70533            29.97881            26.39148            28.62636            27.97716            29.01068            27.15633            28.51504            26.39400            29.44222            27.11364            29.37774            41.28976            30.65959            45.57724            34.35202            25.76866            40.41180            27.17460            31.97581            29.65220            49.62273            38.33724            27.00249            28.79660            29.41649            24.47117            48.26448            34.09486            32.66341            33.23916            23.29157            30.36839            29.40798            32.04051            27.92184            31.62610            29.65013            28.90423            29.36649            30.07899            32.33504            24.72731            30.51799            34.80893            24.92540            27.80976            44.92629            27.55873            23.86875            26.91960            35.79741            29.69198            27.05713            23.98942            45.07109            46.53616            30.77939            32.12581            34.14123            31.75308            32.90761            35.70434            35.89737            32.76819            24.83988            30.61690            40.95113            36.44855            42.85094            30.88227            42.21381            29.07102            32.75904            27.82482            24.57524            28.90425            32.29981            28.06700            33.29243            31.03371            30.52146            33.64007            33.99952            42.94422            52.20541            30.04572            31.92131            32.69320            28.49054            27.34935            25.36242            29.14597            29.38847            26.75965            36.30599            49.03805            42.36315            29.65779            28.47280            29.81359            24.97959            34.31139            29.53712            26.28543            27.52137            26.18068            32.16946            32.86836            35.17883            27.55992            26.99929            26.12553            33.69590            33.57034            47.67394            24.44436            32.88524            30.36039            31.15908            28.56795            27.52768            32.53768            30.46535            29.97896            44.24866            30.82363            29.38462            32.79308            28.11130            27.47972            27.18203            28.77965            38.90085            31.49715            44.39887            28.60692            29.46022            24.64268            24.45248            43.51255            42.74841            28.06086            27.65708            35.78727            36.86476            32.25410            26.42196            28.09987            26.56936            28.73928            26.39575            36.26252            30.95872            35.12813            32.79880            29.32231            26.91553            29.20221            26.93565            43.05978            50.59321            29.60778            34.26540            36.64492            28.02196            27.52374            27.33395            32.21153            30.38609            24.14915            30.17619            33.58501            26.85606            27.01375            35.10062            26.27637            28.64892            31.09846            36.93630            28.53508            46.45606            25.23374            29.76181            30.38794            31.19948            32.88739            32.57222            28.20339            26.71097            40.51666            44.57883            47.17179            30.21774            25.22387            32.09120            28.64562            28.63077            28.28701            32.57208            31.62636            42.57885            48.10606            26.88920            30.25783            28.40372            27.08546            36.82212            45.01825            25.86364            28.84866            32.84655            26.89043            35.75148            38.96222            30.96267            35.75005            30.36354            27.91836            32.08023            26.89335            27.47997            27.72457            39.33380            29.14580            27.83494            33.97944            28.11277            26.89081            27.71911            24.03808            42.23552            41.41724            34.21444            26.81066            39.20114            38.48616            23.33111            31.98917            29.26063            26.86629            31.43088            33.90829            32.82199            32.33523            25.25360            23.89700            34.03704            32.58552            28.29567            23.72403            28.07616            29.46293            28.51306            44.72210            49.11877            32.78708            27.22386            38.77795            29.44856            30.69552            26.14112            32.10272            33.44988            38.48112            28.59987            30.57785            29.45923            28.47853            44.14566            26.87878            33.31600            27.23373            28.34274            32.38736            28.38925            44.18466            35.57459            43.47863            32.38090            28.57219            28.57861            32.84988            29.71383            27.55145            30.38055            28.78161            31.12121            35.15184            31.18967            44.40652            27.28959            32.68526            32.41315            34.31210            26.88019            30.96077            43.11542            36.81420            43.74582            30.60084            38.40428            37.29445            24.53871            24.98067            33.59686            37.02531            30.76390            29.62533            27.19689            33.47656            28.02882            29.05383            31.93671            32.62383            44.92981            30.43216            28.12597            33.56138            28.94763            42.30737            26.38468            27.05541            42.09033            27.91391            25.99161            28.43520            35.78177            29.35740            28.10070            45.00076            25.77164            28.20506            37.45106            29.90012            36.32475            45.02010            28.86637            29.64299            36.09515            30.20652            37.73949            26.51985            28.69748            51.01430            26.64677            30.73889            40.30538            24.30989            24.96246            32.78385            26.77480            28.42863            30.52589            42.92782            27.30438            31.60577            32.72550            49.95517            24.72492            33.15069            36.34194            27.99173            32.39912            35.87891            31.99619            28.07487            28.28164            28.33095            28.55927            31.09794            26.23067            29.14110            35.93553            28.69843            29.77856            31.17403            27.82614            29.25881            29.64843            24.52687            23.80096            29.99777            40.47542            29.92353            26.39075            32.45397            34.77520            38.38704            46.91532            35.87468            29.59024            27.68142            36.31859            28.68676            28.08106            27.93851            33.93657            41.17200            37.63948            29.03786            46.20669            29.45133            39.15772            33.70163            30.21656            31.99579            28.37542            33.19085            43.02166            37.37178            28.51550            28.21274            44.09311            34.50339            28.65303            26.42586  