# vtk DataFile Version 3.0
Output from R3t
ASCII
DATASET UNSTRUCTURED_GRID
POINTS       9925 double
      0.60000000E-01      0.00000000E+00      0.48700000E+00
      0.11000000E+00      0.00000000E+00      0.48700000E+00
      0.16000000E+00      0.00000000E+00      0.48700000E+00
      0.21000000E+00      0.00000000E+00      0.48700000E+00
      0.26000000E+00      0.00000000E+00      0.48700000E+00
      0.31000000E+00      0.00000000E+00      0.48700000E+00
      0.36000000E+00      0.00000000E+00      0.48700000E+00
      0.41000000E+00      0.00000000E+00      0.48700000E+00
      0.60000000E-01      0.00000000E+00      0.43500000E+00
      0.11000000E+00      0.00000000E+00      0.43500000E+00
      0.16000000E+00      0.00000000E+00      0.43500000E+00
      0.21000000E+00      0.00000000E+00      0.43500000E+00
      0.26000000E+00      0.00000000E+00      0.43500000E+00
      0.31000000E+00      0.00000000E+00      0.43500000E+00
      0.36000000E+00      0.00000000E+00      0.43500000E+00
      0.41000000E+00      0.00000000E+00      0.43500000E+00
      0.60000000E-01      0.00000000E+00      0.38500000E+00
      0.11000000E+00      0.00000000E+00      0.38500000E+00
      0.16000000E+00      0.00000000E+00      0.38500000E+00
      0.21000000E+00      0.00000000E+00      0.38500000E+00
      0.26000000E+00      0.00000000E+00      0.38500000E+00
      0.31000000E+00      0.00000000E+00      0.38500000E+00
      0.36000000E+00      0.00000000E+00      0.38500000E+00
      0.41000000E+00      0.00000000E+00      0.38500000E+00
      0.60000000E-01      0.00000000E+00      0.33500000E+00
      0.11000000E+00      0.00000000E+00      0.33500000E+00
      0.16000000E+00      0.00000000E+00      0.33500000E+00
      0.21000000E+00      0.00000000E+00      0.33500000E+00
      0.26000000E+00      0.00000000E+00      0.33500000E+00
      0.31000000E+00      0.00000000E+00      0.33500000E+00
      0.36000000E+00      0.00000000E+00      0.33500000E+00
      0.41000000E+00      0.00000000E+00      0.33500000E+00
      0.60000000E-01      0.00000000E+00      0.28500000E+00
      0.11000000E+00      0.00000000E+00      0.28500000E+00
      0.16000000E+00      0.00000000E+00      0.28500000E+00
      0.21000000E+00      0.00000000E+00      0.28500000E+00
      0.26000000E+00      0.00000000E+00      0.28500000E+00
      0.31000000E+00      0.00000000E+00      0.28500000E+00
      0.36000000E+00      0.00000000E+00      0.28500000E+00
      0.41000000E+00      0.00000000E+00      0.28500000E+00
      0.60000000E-01      0.00000000E+00      0.23500000E+00
      0.11000000E+00      0.00000000E+00      0.23500000E+00
      0.16000000E+00      0.00000000E+00      0.23500000E+00
      0.21000000E+00      0.00000000E+00      0.23500000E+00
      0.26000000E+00      0.00000000E+00      0.23500000E+00
      0.31000000E+00      0.00000000E+00      0.23500000E+00
      0.36000000E+00      0.00000000E+00      0.23500000E+00
      0.41000000E+00      0.00000000E+00      0.23500000E+00
      0.60000000E-01      0.00000000E+00      0.18500000E+00
      0.11000000E+00      0.00000000E+00      0.18500000E+00
      0.16000000E+00      0.00000000E+00      0.18500000E+00
      0.21000000E+00      0.00000000E+00      0.18500000E+00
      0.26000000E+00      0.00000000E+00      0.18500000E+00
      0.31000000E+00      0.00000000E+00      0.18500000E+00
      0.36000000E+00      0.00000000E+00      0.18500000E+00
      0.41000000E+00      0.00000000E+00      0.18500000E+00
      0.60000000E-01      0.00000000E+00      0.13500000E+00
      0.11000000E+00      0.00000000E+00      0.13500000E+00
      0.16000000E+00      0.00000000E+00      0.13500000E+00
      0.21000000E+00      0.00000000E+00      0.13500000E+00
      0.26000000E+00      0.00000000E+00      0.13500000E+00
      0.31000000E+00      0.00000000E+00      0.13500000E+00
      0.36000000E+00      0.00000000E+00      0.13500000E+00
      0.41000000E+00      0.00000000E+00      0.13500000E+00
      0.60000000E-01      0.00000000E+00      0.85000000E-01
      0.11000000E+00      0.00000000E+00      0.85000000E-01
      0.16000000E+00      0.00000000E+00      0.85000000E-01
      0.21000000E+00      0.00000000E+00      0.85000000E-01
      0.26000000E+00      0.00000000E+00      0.85000000E-01
      0.31000000E+00      0.00000000E+00      0.85000000E-01
      0.36000000E+00      0.00000000E+00      0.85000000E-01
      0.41000000E+00      0.00000000E+00      0.85000000E-01
      0.00000000E+00      0.00000000E+00      0.00000000E+00
      0.47000000E+00      0.00000000E+00      0.00000000E+00
      0.00000000E+00      0.00000000E+00      0.50000000E+00
      0.47000000E+00      0.00000000E+00      0.50000000E+00
      0.00000000E+00     -0.30000000E-01      0.00000000E+00
      0.47000000E+00     -0.30000000E-01      0.00000000E+00
      0.00000000E+00     -0.30000000E-01      0.50000000E+00
      0.47000000E+00     -0.30000000E-01      0.50000000E+00
      0.87687900E-02      0.00000000E+00      0.87627500E-02
      0.65643790E-01      0.00000000E+00      0.87627500E-02
      0.12251879E+00      0.00000000E+00      0.87627500E-02
      0.17939379E+00      0.00000000E+00      0.87627500E-02
      0.23626879E+00      0.00000000E+00      0.87627500E-02
      0.29314379E+00      0.00000000E+00      0.87627500E-02
      0.35001879E+00      0.00000000E+00      0.87627500E-02
      0.40689379E+00      0.00000000E+00      0.87627500E-02
      0.46376879E+00      0.00000000E+00      0.87627500E-02
      0.87687900E-02      0.00000000E+00      0.67637750E-01
      0.65643790E-01      0.00000000E+00      0.67637750E-01
      0.12251879E+00      0.00000000E+00      0.67637750E-01
      0.17939379E+00      0.00000000E+00      0.67637750E-01
      0.23626879E+00      0.00000000E+00      0.67637750E-01
      0.29314379E+00      0.00000000E+00      0.67637750E-01
      0.35001879E+00      0.00000000E+00      0.67637750E-01
      0.40689379E+00      0.00000000E+00      0.67637750E-01
      0.46376879E+00      0.00000000E+00      0.67637750E-01
      0.87687900E-02      0.00000000E+00      0.12651275E+00
      0.65643790E-01      0.00000000E+00      0.12651275E+00
      0.12251879E+00      0.00000000E+00      0.12651275E+00
      0.17939379E+00      0.00000000E+00      0.12651275E+00
      0.23626879E+00      0.00000000E+00      0.12651275E+00
      0.29314379E+00      0.00000000E+00      0.12651275E+00
      0.35001879E+00      0.00000000E+00      0.12651275E+00
      0.40689379E+00      0.00000000E+00      0.12651275E+00
      0.46376879E+00      0.00000000E+00      0.12651275E+00
      0.87687900E-02      0.00000000E+00      0.18538775E+00
      0.65643790E-01      0.00000000E+00      0.18538775E+00
      0.12251879E+00      0.00000000E+00      0.18538775E+00
      0.17939379E+00      0.00000000E+00      0.18538775E+00
      0.23626879E+00      0.00000000E+00      0.18538775E+00
      0.29314379E+00      0.00000000E+00      0.18538775E+00
      0.35001879E+00      0.00000000E+00      0.18538775E+00
      0.40689379E+00      0.00000000E+00      0.18538775E+00
      0.46376879E+00      0.00000000E+00      0.18538775E+00
      0.87687900E-02      0.00000000E+00      0.24426275E+00
      0.65643790E-01      0.00000000E+00      0.24426275E+00
      0.12251879E+00      0.00000000E+00      0.24426275E+00
      0.17939379E+00      0.00000000E+00      0.24426275E+00
      0.23626879E+00      0.00000000E+00      0.24426275E+00
      0.29314379E+00      0.00000000E+00      0.24426275E+00
      0.35001879E+00      0.00000000E+00      0.24426275E+00
      0.40689379E+00      0.00000000E+00      0.24426275E+00
      0.46376879E+00      0.00000000E+00      0.24426275E+00
      0.87687900E-02      0.00000000E+00      0.30313775E+00
      0.65643790E-01      0.00000000E+00      0.30313775E+00
      0.12251879E+00      0.00000000E+00      0.30313775E+00
      0.17939379E+00      0.00000000E+00      0.30313775E+00
      0.23626879E+00      0.00000000E+00      0.30313775E+00
      0.29314379E+00      0.00000000E+00      0.30313775E+00
      0.35001879E+00      0.00000000E+00      0.30313775E+00
      0.40689379E+00      0.00000000E+00      0.30313775E+00
      0.46376879E+00      0.00000000E+00      0.30313775E+00
      0.87687900E-02      0.00000000E+00      0.36201275E+00
      0.65643790E-01      0.00000000E+00      0.36201275E+00
      0.12251879E+00      0.00000000E+00      0.36201275E+00
      0.17939379E+00      0.00000000E+00      0.36201275E+00
      0.23626879E+00      0.00000000E+00      0.36201275E+00
      0.29314379E+00      0.00000000E+00      0.36201275E+00
      0.35001879E+00      0.00000000E+00      0.36201275E+00
      0.40689379E+00      0.00000000E+00      0.36201275E+00
      0.46376879E+00      0.00000000E+00      0.36201275E+00
      0.87687900E-02      0.00000000E+00      0.42088775E+00
      0.65643790E-01      0.00000000E+00      0.42088775E+00
      0.12251879E+00      0.00000000E+00      0.42088775E+00
      0.17939379E+00      0.00000000E+00      0.42088775E+00
      0.23626879E+00      0.00000000E+00      0.42088775E+00
      0.29314379E+00      0.00000000E+00      0.42088775E+00
      0.35001879E+00      0.00000000E+00      0.42088775E+00
      0.40689379E+00      0.00000000E+00      0.42088775E+00
      0.46376879E+00      0.00000000E+00      0.42088775E+00
      0.87687900E-02      0.00000000E+00      0.47976275E+00
      0.65643790E-01      0.00000000E+00      0.47976275E+00
      0.12251879E+00      0.00000000E+00      0.47976275E+00
      0.17939379E+00      0.00000000E+00      0.47976275E+00
      0.23626879E+00      0.00000000E+00      0.47976275E+00
      0.29314379E+00      0.00000000E+00      0.47976275E+00
      0.35001879E+00      0.00000000E+00      0.47976275E+00
      0.40689379E+00      0.00000000E+00      0.47976275E+00
      0.46376879E+00      0.00000000E+00      0.47976275E+00
      0.00000000E+00     -0.30000000E-01      0.10000000E-01
[...]
POINT_DATA      9925
CELL_DATA     38427
SCALARS Resistivity(ohm.m) double 1
LOOKUP_TABLE default
            33.99273            29.80346            38.26551            34.53155            39.80901            44.42480            31.99447            40.36306            32.95256            33.47110            28.93398            26.97518            26.07105            39.83350            35.74167            35.43661            32.04545            26.12730            31.82350            28.23596            32.75300            33.12517            33.48004            34.95284            29.89598            39.18376            28.03213            27.32872            26.51972            33.02536            32.71439            38.00871            29.32076            35.97719            32.76865            27.08895            29.03713            30.82780            44.79782            25.95183            32.85893            27.47009            32.28848            31.10304            31.53686            33.61407            36.88444            41.44952            34.54352            39.60825            33.16036            32.09051            45.84661            31.69493            24.39475            33.05274            32.34832            24.81018            37.96164            30.82599            29.49472            30.72159            30.36279            31.28171            29.49687            31.91425            28.59594            33.33961            29.20798            30.21716            26.30201            30.07484            26.74647            44.11129            24.59073            25.65892            29.08670            31.90364            36.67821            44.33552            40.47749            37.93611            34.82495            26.19708            28.40489            30.36952            31.29316            34.71652            44.66192            32.73091            32.87657            28.38656            28.30140            32.12522            31.94077            30.08435            30.89640            31.92306            42.84570            35.02282            31.94887            31.07000            26.44604            42.36465            43.60250            38.46105            26.89684            31.80982            30.21328            28.11814            28.29018            31.07842            38.72213            25.47450            39.54089            26.67454            32.31301            25.79289            40.41746            26.81860            32.09754            29.63049            32.72733            34.75652            35.57556            30.72022            30.38166            28.15755            25.08783            36.86747            26.72933            32.58290            32.22970            31.24882            37.98370            28.06635            37.23519            39.07401            45.11392            26.67629            44.09468            38.13397            35.52529            29.24622            33.37330            29.83944            43.19646            38.30691            38.24471            31.92216            27.04281            37.96372            32.55522            33.07550            29.22990            28.26687            30.52342            32.85329            30.81482            28.57942            34.18246            27.11317            25.74920            25.88196            30.66357            26.22576            35.96659            37.97086            29.24160            33.77974            28.18500            43.29183            33.90438            30.62136            24.25399            39.61984            24.85340            34.58926            35.38585            25.78915            24.98525            37.30417            24.42164            27.01655            31.86608            28.65501            30.05221            42.66602            24.88349            26.40430            30.82811            32.30927            27.01483            28.67365            25.01436            30.47234            31.04277            42.25885            38.31562            32.95070            29.60351            32.78730            45.79390            26.77878            39.13983            34.36479            24.00402            32.28865            28.28796            31.34542            33.43099            38.22778            44.67108            36.92341            32.20584            28.72428            25.58247            44.74075            33.29694            24.38081            28.01387            32.01866            32.42015            35.55964            42.83546            31.88756            33.57013            27.45060            35.58417            30.02836            28.52440            31.26434            29.26296            28.70489            30.44470            29.11146            42.96084            45.23109            32.18196            25.09230            45.84556            32.90913            29.37002            45.49587            44.69456            28.14306            34.99859            44.24104            29.13233            32.70308            45.80568            31.04031            27.56394            37.83734            45.76111            31.29844            27.96827            26.92520            29.12153            24.04899            40.20924            29.87078            38.17908            36.21988            37.84765            28.66783            44.19326            31.47130            26.96753            28.17063            34.70636            32.50947            31.86128            24.47792            26.24195            38.17098            32.03366            38.23709            39.98442            25.11076            29.47937            30.48564            31.41322            32.17962            28.36440            24.04296            30.16441            36.57243            34.65267            39.32520            30.59972            28.37668            44.59276            45.20776            33.27829            32.59486            32.97638            32.83113            32.69452            34.54419            24.72432            27.11204            29.72348            44.72234            34.95474            32.81786            39.26538            38.96762            26.68429            35.37786            29.14861            34.44214            31.37266            34.80520            42.67617            37.40288            23.97536            32.16350            29.98528            41.53713            25.20576            28.11047            33.37045            36.29572            30.50555            26.69621            31.98850            29.42794            36.57501            28.15246            27.45819            45.85038            31.83250            33.33222            29.62749            27.91254            39.03603            35.29684            28.87529            37.07402            28.12282            31.13410            30.59552            29.26150            28.60346            30.01080            38.95102            28.02240            32.06005            44.80829            34.41024            32.59020            25.91801            33.43209            27.98138            32.86779            35.06095            29.56094            26.82013            31.31065            30.79757            34.17718            31.25966            33.92966            32.83292            44.25718            26.82032            35.24410            26.84188            35.13321            28.01221            32.85010            36.88886            32.27170            44.54804            25.96355            31.96888            29.62170            28.99068            25.95684            32.66651            30.06076            28.71850            28.12847            38.37119            45.32935            37.31408            32.81675            31.83083            44.50204            38.33551            35.45669            31.37625            44.98569            30.80245            26.02767            34.01485            29.25472            30.38246            27.93520            36.46921            25.90451            25.09180            30.16497            33.45411            32.42396            26.82264            33.82765            35.47041            32.79505            40.02039            37.03066            37.32236            34.57469            39.38096            29.14773            34.77537            31.59769            34.44269            36.28257            30.23703            26.16030            39.65798            34.04456            26.68536            36.75469            28.94053            30.11612            30.01292            33.35496            32.83439            25.31334            27.24513            34.99652            34.14468            38.73738            33.76657            32.12423            31.40493            26.61854            25.58525            26.81380            37.90010            40.11792            36.58255            37.29444            36.65664            24.88786            37.13680            33.22233            28.36919            28.90023            29.76300            28.77832            32.35568            27.88333            28.99260            35.00665            45.82944            45.25753            31.99447            26.90655            38.25985            36.97454            30.37862            35.48760            30.00472            35.69443            25.83940            31.31351            25.63697            32.80959            42.34170            28.54697            24.16239            25.55373            37.13383            29.67201            32.13255            45.20082            33.66656            29.97174            37.19505            40.61834            29.81579            30.22639            39.19309            39.95432            39.54247            36.18825            32.95896            45.80096            33.58892            36.12804            28.12883            32.56486            30.35156            28.23277            28.97490            45.22855            37.00891            27.88501            31.94840            33.54767            24.11652            37.82033            24.74262            30.87211            39.79973            45.40692            26.89532            33.55083            29.67219            25.01907            34.62475            32.79977            35.98766            31.53127            28.72284            33.22211            35.00625            32.50955            28.00991            24.16659            44.77298            35.95522            31.63713            24.73440            27.59667            31.56813            30.29436            27.91613            40.42051            35.95098            29.55976            42.39314            30.96280            44.95667            32.42512            24.63818            35.19283            31.56107            26.35616            34.90386            27.40802            29.64305            24.83632            45.04745            27.16841            27.49084            33.91328            36.99536            40.15512            34.66434            33.02752            44.15183            35.55303            42.76426            25.75809            31.43050            44.50034            27.16001            39.35720            36.66164            31.03702            36.48508            38.12876            27.60765            38.05469            30.77521            26.54750            29.83890            33.29973            45.72723            35.33250            34.37099            42.59685            26.76414            28.55632            34.30198            37.98462            30.55279            28.88265            26.63344            42.18568            45.79107            34.09768            34.48451            28.21419            38.09946            44.70942            33.94288            27.90603            44.58926            32.50216            33.64297            32.02917            38.83810            27.39999            37.21729            33.15552            28.21466            33.91293            34.20596            29.19894            39.48283            36.04682            28.97910            25.17209            43.56922            36.07630            38.47241            32.46724            35.37176            34.38721            27.18437            36.05480            26.97838            31.93639            34.58286            35.59581            39.65866            31.71962            33.04316            27.09198            32.18877            31.85835            25.84187            32.74425            39.69866            33.57455            38.00858            31.28710            27.80152            43.12835            39.80279            39.05708            31.96268            40.08545            30.95114            26.34600            36.09900            29.25420            29.55896            35.44964            37.07002            26.06525            35.70768            37.94974            28.70310            31.87029            28.80272            27.67720            30.96436            44.61583            28.88893            29.93873            39.64112            24.99430            26.30406            23.84213            37.07430            32.56291            35.11508            28.36233            27.88763            42.15519            28.86198            44.76300            35.26528            39.66937            26.03557            35.75341            33.58208            45.90770            28.98883            28.85783            38.43835            38.14015            28.00369            27.07991            28.29224            28.82428            37.77198            26.93982            26.15559            34.58665            32.93997            28.33919            29.40847            34.52662            37.23345            32.22078            39.16649            32.03416            25.80495            34.76119            33.26253            39.82988            28.68285            26.06321            28.05187            36.66290            27.68474            30.70065            28.12169            26.96340            39.01754            29.90623            34.99730            25.10948            43.34878            38.07690            33.44932            24.67794            33.57764            29.58012            31.88484            31.53663            41.97147            26.87331            39.41610            33.42771            28.33999            27.87090            34.52366            45.19736            32.11776            35.59022            30.41030            33.70763            30.31397            30.25914            40.19722            31.04113            31.41934            26.38482            42.93600            38.81031            37.66079            38.66767            31.84112            44.11366            36.84713            45.82626            39.22267            35.72811            36.59408            32.08953            27.99590            34.55560            31.52659            33.68643            28.06604            27.57248            28.92788            28.64374            26.05242            39.76224            28.97847            28.70192            37.52211            35.90800            34.57790            45.12907            31.65092            26.25830            28.12999            36.16440            33.15195            26.96093            31.90593            31.65851            34.92673            30.93045            36.41650            36.26217            27.76730            28.33353            28.96520            27.30910            28.76771            32.82908            30.59827            33.05051            35.60688            26.86285            32.16111            33.60136            32.94176            32.09283            26.94552            38.26823            25.86341            32.34733            36.44206            40.58087            31.58152            25.04021            38.99303            28.63140            33.51358            41.20228            37.45103            38.64586            30.44428            32.70343            29.82410            34.98635            45.26264            24.58031            24.06315            45.14000            37.69124            34.96819            28.92224            41.78310            28.75255            35.76772            33.21148            34.33359            38.69550            26.97443            39.64428            35.85610            45.76690            29.10544            30.06588            26.74395            33.30243            35.74370            25.40363            27.10416            25.73906            34.92531            25.86859            25.88828            39.30963            35.14505            27.07988            32.79798            30.69901            44.53953            45.02241            35.80336            28.47997            27.02607            32.50227            26.79423            39.05646            40.10347            36.37044            35.36364            25.91947            32.60704            36.67445            30.94191            44.94079            27.08512            39.50259            33.27412            26.92096            34.77388            28.16762            31.61138            44.18873            24.01235            33.30982            37.29878            44.68941            30.93188            32.00528            35.97915            36.71245            43.83008            28.75791            33.44665            31.21953            26.65671            24.69926            26.86015            32.72755            28.20761            34.64958            29.76584            29.14978            31.87591            26.07944            32.97209            29.24409            34.46506            41.83079            36.27855            45.44716            36.99622            26.54411            34.63147            44.55440            26.99680            27.30555            28.98562            33.64149            26.61380            28.73327            34.90540            31.23274            32.28151            39.58874            33.28927            40.47180            31.58789            32.13848            35.28675            44.75957            32.31034            39.00465            40.10627            32.01286            32.83594            26.79521            32.28659            28.28729            27.97171            37.92016            33.30265            30.39771            39.46895            40.13690            42.70517            39.02955            41.29842            33.50792            27.36914            24.33026            41.95268            39.01672            33.81114            34.71442            31.12139            33.06421            39.63171            32.16508            37.77723            24.30547            28.96650            37.88007            36.03936            24.11027            37.72088            44.21680            30.88099            33.11581            25.69476            30.32361            31.40092            36.72527            45.37573            35.52812            29.73454            34.59337            30.88157            34.38926            29.46277            35.55806            39.17676            34.92355            38.57952            33.20026            32.76597            32.20065            26.82064            31.18823            35.93599            39.56725            38.49770            34.62740            27.97170            28.00806            33.67806            30.78503            24.95904            32.29568            24.76949            33.21556            36.48645            39.03879            32.28341            32.22675            26.46352            35.01935            45.30295            25.33081            31.92292            33.81379            32.39978  