# vtk DataFile Version 3.0
Output from R3t
ASCII
DATASET UNSTRUCTURED_GRID
POINTS       9925 double
      0.60000000E-01      0.00000000E+00      0.48700000E+00
      0.11000000E+00      0.00000000E+00      0.48700000E+00
      0.16000000E+00      0.00000000E+00      0.48700000E+00
      0.21000000E+00      0.00000000E+00      0.48700000E+00
      0.26000000E+00      0.00000000E+00      0.48700000E+00
      0.31000000E+00      0.00000000E+00      0.48700000E+00
      0.36000000E+00      0.00000000E+00      0.48700000E+00
      0.41000000E+00      0.00000000E+00      0.48700000E+00
      0.60000000E-01      0.00000000E+00      0.43500000E+00
      0.11000000E+00      0.00000000E+00      0.43500000E+00
      0.16000000E+00      0.00000000E+00      0.43500000E+00
      0.21000000E+00      0.00000000E+00      0.43500000E+00
      0.26000000E+00      0.00000000E+00      0.43500000E+00
      0.31000000E+00      0.00000000E+00      0.43500000E+00
      0.36000000E+00      0.00000000E+00      0.43500000E+00
      0.41000000E+00      0.00000000E+00      0.43500000E+00
      0.60000000E-01      0.00000000E+00      0.38500000E+00
      0.11000000E+00      0.00000000E+00      0.38500000E+00
      0.16000000E+00      0.00000000E+00      0.38500000E+00
      0.21000000E+00      0.00000000E+00      0.38500000E+00
      0.26000000E+00      0.00000000E+00      0.38500000E+00
      0.31000000E+00      0.00000000E+00      0.38500000E+00
      0.36000000E+00      0.00000000E+00      0.38500000E+00
      0.41000000E+00      0.00000000E+00      0.38500000E+00
      0.60000000E-01      0.00000000E+00      0.33500000E+00
      0.11000000E+00      0.00000000E+00      0.33500000E+00
      0.16000000E+00      0.00000000E+00      0.33500000E+00
      0.21000000E+00      0.00000000E+00      0.33500000E+00
      0.26000000E+00      0.00000000E+00      0.33500000E+00
      0.31000000E+00      0.00000000E+00      0.33500000E+00
      0.36000000E+00      0.00000000E+00      0.33500000E+00
      0.41000000E+00      0.00000000E+00      0.33500000E+00
      0.60000000E-01      0.00000000E+00      0.28500000E+00
      0.11000000E+00      0.00000000E+00      0.28500000E+00
      0.16000000E+00      0.00000000E+00      0.28500000E+00
      0.21000000E+00      0.00000000E+00      0.28500000E+00
      0.26000000E+00      0.00000000E+00      0.28500000E+00
      0.31000000E+00      0.00000000E+00      0.28500000E+00
      0.36000000E+00      0.00000000E+00      0.28500000E+00
      0.41000000E+00      0.00000000E+00      0.28500000E+00
      0.60000000E-01      0.00000000E+00      0.23500000E+00
      0.11000000E+00      0.00000000E+00      0.23500000E+00
      0.16000000E+00      0.00000000E+00      0.23500000E+00
      0.21000000E+00      0.00000000E+00      0.23500000E+00
      0.26000000E+00      0.00000000E+00      0.23500000E+00
      0.31000000E+00      0.00000000E+00      0.23500000E+00
      0.36000000E+00      0.00000000E+00      0.23500000E+00
      0.41000000E+00      0.00000000E+00      0.23500000E+00
      0.60000000E-01      0.00000000E+00      0.18500000E+00
      0.11000000E+00      0.00000000E+00      0.18500000E+00
      0.16000000E+00      0.00000000E+00      0.18500000E+00
      0.21000000E+00      0.00000000E+00      0.18500000E+00
      0.26000000E+00      0.00000000E+00      0.18500000E+00
      0.31000000E+00      0.00000000E+00      0.18500000E+00
      0.36000000E+00      0.00000000E+00      0.18500000E+00
      0.41000000E+00      0.00000000E+00      0.18500000E+00
      0.60000000E-01      0.00000000E+00      0.13500000E+00
      0.11000000E+00      0.00000000E+00      0.13500000E+00
      0.16000000E+00      0.00000000E+00      0.13500000E+00
      0.21000000E+00      0.00000000E+00      0.13500000E+00
      0.26000000E+00      0.00000000E+00      0.13500000E+00
      0.31000000E+00      0.00000000E+00      0.13500000E+00
      0.36000000E+00      0.00000000E+00      0.13500000E+00
      0.41000000E+00      0.00000000E+00      0.13500000E+00
      0.60000000E-01      0.00000000E+00      0.85000000E-01
      0.11000000E+00      0.00000000E+00      0.85000000E-01
      0.16000000E+00      0.00000000E+00      0.85000000E-01
      0.21000000E+00      0.00000000E+00      0.85000000E-01
      0.26000000E+00      0.00000000E+00      0.85000000E-01
      0.31000000E+00      0.00000000E+00      0.85000000E-01
      0.36000000E+00      0.00000000E+00      0.85000000E-01
      0.41000000E+00      0.00000000E+00      0.85000000E-01
      0.00000000E+00      0.00000000E+00      0.00000000E+00
      0.47000000E+00      0.00000000E+00      0.00000000E+00
      0.00000000E+00      0.00000000E+00      0.50000000E+00
      0.47000000E+00      0.00000000E+00      0.50000000E+00
      0.00000000E+00     -0.30000000E-01      0.00000000E+00
      0.47000000E+00     -0.30000000E-01      0.00000000E+00
      0.00000000E+00     -0.30000000E-01      0.50000000E+00
      0.47000000E+00     -0.30000000E-01      0.50000000E+00
      0.87687900E-02      0.00000000E+00      0.87627500E-02
      0.65643790E-01      0.00000000E+00      0.87627500E-02
      0.12251879E+00      0.00000000E+00      0.87627500E-02
      0.17939379E+00      0.00000000E+00      0.87627500E-02
      0.23626879E+00      0.00000000E+00      0.87627500E-02
      0.29314379E+00      0.00000000E+00      0.87627500E-02
      0.35001879E+00      0.00000000E+00      0.87627500E-02
      0.40689379E+00      0.00000000E+00      0.87627500E-02
      0.46376879E+00      0.00000000E+00      0.87627500E-02
      0.87687900E-02      0.00000000E+00      0.67637750E-01
      0.65643790E-01      0.00000000E+00      0.67637750E-01
      0.12251879E+00      0.00000000E+00      0.67637750E-01
      0.17939379E+00      0.00000000E+00      0.67637750E-01
      0.23626879E+00      0.00000000E+00      0.67637750E-01
      0.29314379E+00      0.00000000E+00      0.67637750E-01
      0.35001879E+00      0.00000000E+00      0.67637750E-01
      0.40689379E+00      0.00000000E+00      0.67637750E-01
      0.46376879E+00      0.00000000E+00      0.67637750E-01
      0.87687900E-02      0.00000000E+00      0.12651275E+00
      0.65643790E-01      0.00000000E+00      0.12651275E+00
      0.12251879E+00      0.00000000E+00      0.12651275E+00
      0.17939379E+00      0.00000000E+00      0.12651275E+00
      0.23626879E+00      0.00000000E+00      0.12651275E+00
      0.29314379E+00      0.00000000E+00      0.12651275E+00
      0.35001879E+00      0.00000000E+00      0.12651275E+00
      0.40689379E+00      0.00000000E+00      0.12651275E+00
      0.46376879E+00      0.00000000E+00      0.12651275E+00
      0.87687900E-02      0.00000000E+00      0.18538775E+00
      0.65643790E-01      0.00000000E+00      0.18538775E+00
      0.12251879E+00      0.00000000E+00      0.18538775E+00
      0.17939379E+00      0.00000000E+00      0.18538775E+00
      0.23626879E+00      0.00000000E+00      0.18538775E+00
      0.29314379E+00      0.00000000E+00      0.18538775E+00
      0.35001879E+00      0.00000000E+00      0.18538775E+00
      0.40689379E+00      0.00000000E+00      0.18538775E+00
      0.46376879E+00      0.00000000E+00      0.18538775E+00
      0.87687900E-02      0.00000000E+00      0.24426275E+00
      0.65643790E-01      0.00000000E+00      0.24426275E+00
      0.12251879E+00      0.00000000E+00      0.24426275E+00
      0.17939379E+00      0.00000000E+00      0.24426275E+00
      0.23626879E+00      0.00000000E+00      0.24426275E+00
      0.29314379E+00      0.00000000E+00      0.24426275E+00
      0.35001879E+00      0.00000000E+00      0.24426275E+00
      0.40689379E+00      0.00000000E+00      0.24426275E+00
      0.46376879E+00      0.00000000E+00      0.24426275E+00
      0.87687900E-02      0.00000000E+00      0.30313775E+00
      0.65643790E-01      0.00000000E+00      0.30313775E+00
      0.12251879E+00      0.00000000E+00      0.30313775E+00
      0.17939379E+00      0.00000000E+00      0.30313775E+00
      0.23626879E+00      0.00000000E+00      0.30313775E+00
      0.29314379E+00      0.00000000E+00      0.30313775E+00
      0.35001879E+00      0.00000000E+00      0.30313775E+00
      0.40689379E+00      0.00000000E+00      0.30313775E+00
      0.46376879E+00      0.00000000E+00      0.30313775E+00
      0.87687900E-02      0.00000000E+00      0.36201275E+00
      0.65643790E-01      0.00000000E+00      0.36201275E+00
      0.12251879E+00      0.00000000E+00      0.36201275E+00
      0.17939379E+00      0.00000000E+00      0.36201275E+00
      0.23626879E+00      0.00000000E+00      0.36201275E+00
      0.29314379E+00      0.00000000E+00      0.36201275E+00
      0.35001879E+00      0.00000000E+00      0.36201275E+00
      0.40689379E+00      0.00000000E+00      0.36201275E+00
      0.46376879E+00      0.00000000E+00      0.36201275E+00
      0.87687900E-02      0.00000000E+00      0.42088775E+00
      0.65643790E-01      0.00000000E+00      0.42088775E+00
      0.12251879E+00      0.00000000E+00      0.42088775E+00
      0.17939379E+00      0.00000000E+00      0.42088775E+00
      0.23626879E+00      0.00000000E+00      0.42088775E+00
      0.29314379E+00      0.00000000E+00      0.42088775E+00
      0.35001879E+00      0.00000000E+00      0.42088775E+00
      0.40689379E+00      0.00000000E+00      0.42088775E+00
      0.46376879E+00      0.00000000E+00      0.42088775E+00
      0.87687900E-02      0.00000000E+00      0.47976275E+00
      0.65643790E-01      0.00000000E+00      0.47976275E+00
      0.12251879E+00      0.00000000E+00      0.47976275E+00
      0.17939379E+00      0.00000000E+00      0.47976275E+00
      0.23626879E+00      0.00000000E+00      0.47976275E+00
      0.29314379E+00      0.00000000E+00      0.47976275E+00
      0.35001879E+00      0.00000000E+00      0.47976275E+00
      0.40689379E+00      0.00000000E+00      0.47976275E+00
      0.46376879E+00      0.00000000E+00      0.47976275E+00
      0.00000000E+00     -0.30000000E-01      0.10000000E-01
[...]
POINT_DATA      9925
CELL_DATA     38427
SCALARS Resistivity(ohm.m) double 1
LOOKUP_TABLE default
            28.01556            30.11835            38.85193            36.88585            42.19348            45.02410            31.98119            47.21774            36.90623            30.08181            36.12936            28.17621            29.69847            42.22389            38.82385            33.49824            31.55838            26.85878            31.92916            28.74772            33.00998            30.21816            34.85149            41.67085            31.00814            43.92820            29.70274            27.89381            26.75888            35.78060            36.39057            40.72464            30.03092            38.83643            33.40996            28.27289            29.59361            30.70493            39.87075            27.28362            35.53327            28.04009            37.14678            31.19095            33.63301            33.54227            34.81709            42.55497            37.59262            41.18922            27.47657            29.41091            41.91064            33.64937            27.15388            39.99419            32.57456            26.48580            39.59491            36.03632            35.30503            32.00471            35.00069            36.96716            36.57773            31.78496            29.85490            36.11584            34.42026            34.84026            29.00265            30.95288            29.04751            40.26592            26.78261            26.28942            36.55470            31.79602            39.28489            40.50094            47.32604            40.64478            38.04946            27.89165            34.52283            34.64191            32.54907            36.33209            43.92205            33.25860            36.61001            29.83255            29.80848            29.24505            38.14673            30.09784            31.97448            31.79534            45.65723            36.83826            32.07727            31.42804            27.86889            44.93751            42.44520            41.13279            27.91298            31.84752            36.75292            29.32273            29.03489            31.08561            41.56364            27.95039            47.91039            29.69086            33.49278            26.05250            40.69933            28.70384            29.65938            33.08040            38.09578            29.94748            35.73575            35.36620            38.28888            28.66408            27.16950            36.01229            29.48965            36.17007            28.91415            38.79742            29.13459            29.20421            34.73658            34.79924            39.78923            29.54685            45.52451            29.81391            38.45796            31.70015            33.31061            34.43436            42.50076            39.02138            29.98363            31.80740            28.44886            39.58007            29.78876            36.93581            30.51264            28.87061            31.73898            30.38097            31.80245            31.42957            30.25376            30.40375            25.89251            26.94947            36.02810            29.19128            39.07842            39.71784            29.60191            35.63592            29.75293            45.01121            35.79488            30.95816            27.20980            43.28882            26.95387            34.23200            26.45001            26.91867            27.09502            28.82420            26.66818            28.03279            31.85306            28.06962            34.57672            45.42669            27.37275            26.51525            31.69879            32.78496            27.64696            31.24474            28.57878            31.80503            32.35027            45.28005            40.47851            37.26853            30.56957            27.44848            43.47607            27.82213            46.59033            30.66941            25.93281            38.48722            30.71064            31.63115            34.53136            39.05856            42.90446            31.92703            33.80937            29.98496            26.11391            45.28174            34.11620            26.48544            28.95835            32.14281            32.96978            39.65594            40.68759            31.72125            35.01765            27.97012            38.06200            31.32033            30.25025            28.17405            32.38346            28.07769            37.01546            36.27572            45.79884            44.78911            38.75997            28.67207            41.90400            31.08677            29.99930            40.48602            43.08279            29.36042            38.00718            45.11716            30.16045            36.39663            43.29976            31.10472            28.32865            33.12953            43.75182            38.14638            28.57490            31.48058            36.33547            26.16236            46.60078            30.73709            40.09269            31.78108            39.59062            31.19191            45.56225            38.67410            31.24380            29.38286            37.65144            33.58270            34.07030            28.17153            27.07378            36.85698            31.44075            36.95264            40.40820            27.22173            35.36801            34.57015            29.00076            33.32931            29.59449            27.47165            32.29447            32.09419            36.61038            41.46652            37.19527            29.22072            39.94271            42.38754            38.31090            39.01616            28.09616            33.42428            29.69933            37.79993            26.44219            28.15678            30.81619            39.85457            37.23974            28.26347            41.31851            39.98382            29.54018            35.40675            35.16462            36.31607            33.23004            25.87868            42.17536            40.11228            25.94302            32.39532            31.05791            43.33071            27.12852            29.66965            32.22019            35.57184            30.91195            29.38059            31.97754            32.61613            36.67665            29.76685            28.26541            42.00367            32.68080            32.29624            30.89113            29.51656            34.76542            38.47461            30.14385            32.34182            29.91974            36.81184            31.39149            36.37766            29.86438            31.61567            32.45458            28.49581            31.00457            42.76351            32.75827            37.95434            27.47385            31.95099            27.34110            33.51961            33.17261            28.25323            28.48249            39.16288            35.48101            33.81032            36.67213            32.77209            25.64553            45.47570            28.47977            32.68961            29.82449            37.55847            29.06888            33.09621            35.93764            39.49995            42.51084            27.56312            31.62509            35.51748            34.03274            25.93632            29.73302            31.29487            32.08251            29.78571            40.59690            39.73846            32.12857            31.07892            33.78559            41.73757            34.78328            26.44157            36.95839            42.70683            31.11164            27.11573            29.87094            33.85934            36.50645            30.01169            39.28365            27.17611            27.13259            30.13880            38.65111            30.63866            28.87055            25.98554            35.55199            31.46691            42.50317            28.50009            35.77295            40.10816            42.40703            35.18204            36.33728            30.09649            27.78961            38.88019            34.99168            27.94353            32.78749            38.15280            27.90298            31.98482            30.18504            34.73206            31.10459            30.66460            33.20034            26.32732            28.45720            35.10932            34.12799            40.66334            28.85190            29.03495            38.27639            31.32783            27.17602            27.98622            33.30095            40.29532            38.66978            38.85590            32.00523            26.02088            39.86685            27.29816            30.04632            35.82071            31.38091            31.32880            32.46880            27.49107            29.39808            36.88420            41.92195            42.16492            31.69515            28.27576            40.99095            37.13261            36.66186            35.90221            34.16057            31.02834            27.01050            32.34201            26.64058            36.58140            44.89880            27.96667            25.83183            27.01816            37.65345            30.75951            31.78259            40.40169            25.96776            37.88350            32.21458            42.54798            34.41859            31.05277            34.99900            42.41102            33.67918            35.90302            35.85235            43.28052            33.52241            33.28322            28.99747            33.91873            30.59817            29.47486            33.52939            44.80072            32.33055            28.78436            30.29150            39.69420            26.28415            43.90584            26.73164            32.01238            44.99445            40.26603            27.89833            35.50148            33.80653            28.60540            34.28607            26.42518            34.06499            29.41544            29.23023            37.13701            36.23918            34.18722            29.68430            27.62487            39.91793            39.06856            35.20784            26.05682            28.21371            33.47197            36.88377            29.10526            43.83509            41.27846            33.22762            40.32777            32.00526            42.53691            33.71408            27.10772            40.35990            37.79615            27.44135            36.19155            28.34749            30.76721            26.28865            42.46944            28.05561            28.57649            33.90152            32.38266            42.07620            37.65168            28.69353            45.40922            38.24053            45.54831            26.83454            37.77004            42.20435            28.26931            41.93853            36.22039            35.66593            39.08896            43.98902            31.15469            29.59126            31.67652            29.13493            32.52195            38.45920            43.86083            38.01312            27.84884            45.34638            28.31383            34.74368            35.59518            40.64659            35.92168            30.10062            27.74798            45.36019            43.24857            30.87314            28.21423            29.60094            44.01009            42.56100            32.69962            29.31410            44.82889            38.94906            30.19189            28.13435            34.96503            28.02823            31.97902            25.11719            29.40761            34.25021            34.13216            35.21836            33.72899            31.65285            32.82329            27.31132            45.02720            31.70168            40.90842            33.40806            38.37678            30.57086            28.23776            41.47013            30.06818            34.96680            37.05271            33.91710            32.91641            33.91190            30.83103            29.27193            32.07823            35.88750            26.67982            30.64376            48.19555            32.55697            29.58292            37.61065            29.28311            45.81753            39.38706            34.46293            32.17990            42.72890            31.03653            28.56409            35.41657            28.90574            32.28007            33.20542            31.92236            26.87085            38.18643            39.73487            30.89906            31.53279            31.84637            28.84637            36.60072            45.36624            29.37636            31.02735            32.63405            27.02673            27.34124            25.97949            30.77004            26.25679            35.03752            27.72118            31.22784            44.63436            30.81472            40.01014            36.38613            42.24375            27.13433            30.99711            37.82325            42.33786            29.66086            31.18281            40.41593            40.79334            29.19653            25.73007            30.70509            29.40408            31.43124            29.91856            26.84190            31.91258            27.61913            29.05354            33.51863            32.76798            34.85736            33.31380            34.90004            29.28221            27.34452            36.88846            30.51892            41.83094            29.91619            26.96361            29.21311            36.48470            28.11308            30.97393            29.50826            32.19155            32.73655            35.67902            32.03824            27.12681            40.01038            29.79535            35.73877            26.20917            24.93113            30.72156            33.86077            31.50094            45.63321            32.46624            44.65090            36.13092            27.86412            29.06134            37.56852            42.18859            30.45328            38.79170            31.67443            34.46488            35.06408            31.40036            43.62341            32.34974            31.77677            30.10968            45.80280            44.49703            40.65133            39.38694            31.98174            42.77387            31.57848            41.13162            34.84929            40.98319            35.80274            30.01247            29.54503            35.67551            31.55951            28.77506            29.41824            32.68390            31.72672            31.84916            27.51397            44.49985            29.71707            29.69709            40.12797            38.59052            34.48804            42.12783            33.54639            26.89533            29.69943            40.20311            35.59432            28.00028            31.81937            32.81101            38.00427            29.50169            31.94000            38.88153            28.11496            28.59353            29.38371            28.17593            30.03727            27.97655            31.63440            39.98373            26.80247            28.02826            31.86567            32.50025            36.67567            36.15558            31.18947            39.03292            25.85984            33.31282            39.27948            47.75009            35.78796            26.95605            35.66806            28.89033            27.41582            44.31224            32.97744            40.69913            35.18677            33.27218            30.58255            39.85882            44.74310            28.23501            27.49144            42.22306            40.32116            34.50966            32.50688            44.13723            31.20985            33.43117            35.70236            30.44402            42.67173            30.16512            44.92381            41.08959            43.49704            35.09162            28.75078            28.52152            39.54190            38.62945            26.31400            28.16707            29.65071            36.65836            26.93944            26.95287            41.53598            37.54864            27.73527            33.36234            35.72615            42.48063            40.33813            31.20396            28.84131            27.68793            28.54778            28.17129            41.81280            41.61378            35.49726            35.77254            26.99684            37.86036            33.29490            37.79091            39.80586            27.91998            33.90208            27.70481            27.40928            34.63593            30.53516            33.65879            45.43074            27.22130            36.19590            37.00809            39.97527            31.10280            32.21409            38.79153            35.58795            45.58296            29.11568            35.12436            38.01313            28.34194            25.60527            27.88485            28.31620            29.33791            34.29681            29.17282            30.44856            28.89243            27.88380            31.98826            30.47331            35.99563            45.00536            34.20985            41.32295            32.03571            28.93282            37.12743            41.68586            31.44949            30.90834            29.46254            28.67665            29.91487            31.03965            37.29814            31.34080            32.57541            33.58191            32.27853            43.58903            32.06890            31.78575            37.72587            43.93448            29.91493            43.08520            46.17187            31.60429            36.68598            28.01791            33.29118            29.84766            28.59653            36.69216            35.00595            30.75776            47.87245            46.23730            39.99155            34.44921            45.55038            34.13787            28.97709            26.03473            44.61012            32.17101            27.96756            36.29606            37.85295            37.05806            32.73214            32.11783            29.41459            27.89384            32.80884            38.56778            35.35948            25.72478            38.20114            40.71580            32.21389            37.18833            26.02694            30.70873            35.99402            37.09592            39.84898            38.38623            28.92981            36.90190            37.45058            35.04736            29.95624            41.91530            41.26337            37.83024            41.18006            34.37325            36.14674            32.29017            29.45141            32.51493            34.45334            33.71962            41.60698            37.74655            28.61884            28.65940            28.60416            37.41079            25.83290            32.78928            26.09877            25.03115            37.08326            35.53303            29.95902            28.60327            27.63442            28.48582            44.69753            27.34109            31.83118            29.31592            28.68421  