# vtk DataFile Version 3.0
Output from R3t
ASCII
DATASET UNSTRUCTURED_GRID
POINTS       8652 double
      0.50000000E-01     -0.50000000E-02      0.48500000E+00
      0.10000000E+00     -0.50000000E-02      0.48500000E+00
      0.15000000E+00     -0.50000000E-02      0.48500000E+00
      0.20000000E+00     -0.50000000E-02      0.48500000E+00
      0.25000000E+00     -0.50000000E-02      0.48500000E+00
      0.30000000E+00     -0.50000000E-02      0.48500000E+00
      0.35000000E+00     -0.50000000E-02      0.48500000E+00
      0.40000000E+00     -0.50000000E-02      0.48500000E+00
      0.50000000E-01      0.00000000E+00      0.42500000E+00
      0.10000000E+00      0.00000000E+00      0.42500000E+00
      0.15000000E+00      0.00000000E+00      0.42500000E+00
      0.20000000E+00      0.00000000E+00      0.42500000E+00
      0.25000000E+00      0.00000000E+00      0.42500000E+00
      0.30000000E+00      0.00000000E+00      0.42500000E+00
      0.35000000E+00      0.00000000E+00      0.42500000E+00
      0.40000000E+00      0.00000000E+00      0.42500000E+00
      0.50000000E-01      0.00000000E+00      0.37500000E+00
      0.10000000E+00      0.00000000E+00      0.37500000E+00
      0.15000000E+00      0.00000000E+00      0.37500000E+00
      0.20000000E+00      0.00000000E+00      0.37500000E+00
      0.25000000E+00      0.00000000E+00      0.37500000E+00
      0.30000000E+00      0.00000000E+00      0.37500000E+00
      0.35000000E+00      0.00000000E+00      0.37500000E+00
      0.40000000E+00      0.00000000E+00      0.37500000E+00
      0.50000000E-01      0.00000000E+00      0.32500000E+00
      0.10000000E+00      0.00000000E+00      0.32500000E+00
      0.15000000E+00      0.00000000E+00      0.32500000E+00
      0.20000000E+00      0.00000000E+00      0.32500000E+00
      0.25000000E+00      0.00000000E+00      0.32500000E+00
      0.30000000E+00      0.00000000E+00      0.32500000E+00
      0.35000000E+00      0.00000000E+00      0.32500000E+00
      0.40000000E+00      0.00000000E+00      0.32500000E+00
      0.50000000E-01      0.00000000E+00      0.27500000E+00
      0.10000000E+00      0.00000000E+00      0.27500000E+00
      0.15000000E+00      0.00000000E+00      0.27500000E+00
      0.20000000E+00      0.00000000E+00      0.27500000E+00
      0.25000000E+00      0.00000000E+00      0.27500000E+00
      0.30000000E+00      0.00000000E+00      0.27500000E+00
      0.35000000E+00      0.00000000E+00      0.27500000E+00
      0.40000000E+00      0.00000000E+00      0.27500000E+00
      0.50000000E-01      0.00000000E+00      0.22500000E+00
      0.10000000E+00      0.00000000E+00      0.22500000E+00
      0.15000000E+00      0.00000000E+00      0.22500000E+00
      0.20000000E+00      0.00000000E+00      0.22500000E+00
      0.25000000E+00      0.00000000E+00      0.22500000E+00
      0.30000000E+00      0.00000000E+00      0.22500000E+00
      0.35000000E+00      0.00000000E+00      0.22500000E+00
      0.40000000E+00      0.00000000E+00      0.22500000E+00
      0.50000000E-01      0.00000000E+00      0.17500000E+00
      0.10000000E+00      0.00000000E+00      0.17500000E+00
      0.15000000E+00      0.00000000E+00      0.17500000E+00
      0.20000000E+00      0.00000000E+00      0.17500000E+00
      0.50000000E-01      0.00000000E+00      0.12500000E+00
      0.10000000E+00      0.00000000E+00      0.12500000E+00
      0.15000000E+00      0.00000000E+00      0.12500000E+00
      0.20000000E+00      0.00000000E+00      0.12500000E+00
      0.25000000E+00      0.00000000E+00      0.12500000E+00
      0.30000000E+00      0.00000000E+00      0.12500000E+00
      0.35000000E+00      0.00000000E+00      0.12500000E+00
      0.40000000E+00      0.00000000E+00      0.12500000E+00
      0.50000000E-01      0.00000000E+00      0.75000000E-01
      0.10000000E+00      0.00000000E+00      0.75000000E-01
      0.15000000E+00      0.00000000E+00      0.75000000E-01
      0.20000000E+00      0.00000000E+00      0.75000000E-01
      0.25000000E+00      0.00000000E+00      0.75000000E-01
      0.30000000E+00      0.00000000E+00      0.75000000E-01
      0.35000000E+00      0.00000000E+00      0.75000000E-01
      0.40000000E+00      0.00000000E+00      0.75000000E-01
      0.00000000E+00      0.00000000E+00      0.00000000E+00
      0.45000000E+00      0.00000000E+00      0.00000000E+00
      0.00000000E+00      0.00000000E+00      0.50000000E+00
      0.45000000E+00      0.00000000E+00      0.50000000E+00
      0.00000000E+00     -0.30000000E-01      0.00000000E+00
      0.45000000E+00     -0.30000000E-01      0.00000000E+00
      0.00000000E+00     -0.30000000E-01      0.50000000E+00
      0.45000000E+00     -0.30000000E-01      0.50000000E+00
      0.00000000E+00     -0.30000000E-01      0.10000000E-01
      0.00000000E+00     -0.30000000E-01      0.20000000E-01
      0.00000000E+00     -0.30000000E-01      0.30000000E-01
      0.00000000E+00     -0.30000000E-01      0.40000000E-01
      0.00000000E+00     -0.30000000E-01      0.50000000E-01
      0.00000000E+00     -0.30000000E-01      0.60000000E-01
      0.00000000E+00     -0.30000000E-01      0.70000000E-01
      0.00000000E+00     -0.30000000E-01      0.80000000E-01
      0.00000000E+00     -0.30000000E-01      0.90000000E-01
      0.00000000E+00     -0.30000000E-01      0.10000000E+00
      0.00000000E+00     -0.30000000E-01      0.11000000E+00
      0.00000000E+00     -0.30000000E-01      0.12000000E+00
      0.00000000E+00     -0.30000000E-01      0.13000000E+00
      0.00000000E+00     -0.30000000E-01      0.14000000E+00
      0.00000000E+00     -0.30000000E-01      0.15000000E+00
      0.00000000E+00     -0.30000000E-01      0.16000000E+00
      0.00000000E+00     -0.30000000E-01      0.17000000E+00
      0.00000000E+00     -0.30000000E-01      0.18000000E+00
      0.00000000E+00     -0.30000000E-01      0.19000000E+00
      0.00000000E+00     -0.30000000E-01      0.20000000E+00
      0.00000000E+00     -0.30000000E-01      0.21000000E+00
      0.00000000E+00     -0.30000000E-01      0.22000000E+00
      0.00000000E+00     -0.30000000E-01      0.23000000E+00
      0.00000000E+00     -0.30000000E-01      0.24000000E+00
      0.00000000E+00     -0.30000000E-01      0.25000000E+00
      0.00000000E+00     -0.30000000E-01      0.26000000E+00
      0.00000000E+00     -0.30000000E-01      0.27000000E+00
      0.00000000E+00     -0.30000000E-01      0.28000000E+00
      0.00000000E+00     -0.30000000E-01      0.29000000E+00
      0.00000000E+00     -0.30000000E-01      0.30000000E+00
      0.00000000E+00     -0.30000000E-01      0.31000000E+00
      0.00000000E+00     -0.30000000E-01      0.32000000E+00
      0.00000000E+00     -0.30000000E-01      0.33000000E+00
      0.00000000E+00     -0.30000000E-01      0.34000000E+00
      0.00000000E+00     -0.30000000E-01      0.35000000E+00
      0.00000000E+00     -0.30000000E-01      0.36000000E+00
      0.00000000E+00     -0.30000000E-01      0.37000000E+00
      0.00000000E+00     -0.30000000E-01      0.38000000E+00
      0.00000000E+00     -0.30000000E-01      0.39000000E+00
      0.00000000E+00     -0.30000000E-01      0.40000000E+00
      0.00000000E+00     -0.30000000E-01      0.41000000E+00
      0.00000000E+00     -0.30000000E-01      0.42000000E+00
      0.00000000E+00     -0.30000000E-01      0.43000000E+00
      0.00000000E+00     -0.30000000E-01      0.44000000E+00
      0.00000000E+00     -0.30000000E-01      0.45000000E+00
      0.00000000E+00     -0.30000000E-01      0.46000000E+00
      0.00000000E+00     -0.30000000E-01      0.47000000E+00
      0.00000000E+00     -0.30000000E-01      0.48000000E+00
      0.00000000E+00     -0.30000000E-01      0.49000000E+00
      0.10000000E-01     -0.30000000E-01      0.50000000E+00
      0.20000000E-01     -0.30000000E-01      0.50000000E+00
      0.30000000E-01     -0.30000000E-01      0.50000000E+00
      0.40000000E-01     -0.30000000E-01      0.50000000E+00
      0.50000000E-01     -0.30000000E-01      0.50000000E+00
      0.60000000E-01     -0.30000000E-01      0.50000000E+00
      0.70000000E-01     -0.30000000E-01      0.50000000E+00
      0.80000000E-01     -0.30000000E-01      0.50000000E+00
      0.90000000E-01     -0.30000000E-01      0.50000000E+00
      0.10000000E+00     -0.30000000E-01      0.50000000E+00
      0.11000000E+00     -0.30000000E-01      0.50000000E+00
      0.12000000E+00     -0.30000000E-01      0.50000000E+00
      0.13000000E+00     -0.30000000E-01      0.50000000E+00
      0.14000000E+00     -0.30000000E-01      0.50000000E+00
      0.15000000E+00     -0.30000000E-01      0.50000000E+00
      0.16000000E+00     -0.30000000E-01      0.50000000E+00
      0.17000000E+00     -0.30000000E-01      0.50000000E+00
      0.18000000E+00     -0.30000000E-01      0.50000000E+00
      0.19000000E+00     -0.30000000E-01      0.50000000E+00
      0.20000000E+00     -0.30000000E-01      0.50000000E+00
      0.21000000E+00     -0.30000000E-01      0.50000000E+00
      0.22000000E+00     -0.30000000E-01      0.50000000E+00
      0.23000000E+00     -0.30000000E-01      0.50000000E+00
      0.24000000E+00     -0.30000000E-01      0.50000000E+00
      0.25000000E+00     -0.30000000E-01      0.50000000E+00
      0.26000000E+00     -0.30000000E-01      0.50000000E+00
      0.27000000E+00     -0.30000000E-01      0.50000000E+00
      0.28000000E+00     -0.30000000E-01      0.50000000E+00
      0.29000000E+00     -0.30000000E-01      0.50000000E+00
      0.30000000E+00     -0.30000000E-01      0.50000000E+00
      0.31000000E+00     -0.30000000E-01      0.50000000E+00
      0.32000000E+00     -0.30000000E-01      0.50000000E+00
      0.33000000E+00     -0.30000000E-01      0.50000000E+00
      0.34000000E+00     -0.30000000E-01      0.50000000E+00
      0.35000000E+00     -0.30000000E-01      0.50000000E+00
      0.36000000E+00     -0.30000000E-01      0.50000000E+00
      0.37000000E+00     -0.30000000E-01      0.50000000E+00
[...]
POINT_DATA      8652
CELL_DATA     32557
SCALARS Resistivity(ohm.m) double 1
LOOKUP_TABLE default
            37.60589            33.87023            36.65922            36.51347            34.70467            42.72991            41.87313            38.72216            35.75428            45.05366            44.33210            45.82992            45.43513            34.74056            32.39374            33.87205            29.03268            41.80220            36.37088            44.42636            41.16841            33.12056            28.16551            45.13775            31.64380            33.05390            38.88883            35.95838            43.70499            27.66839            35.74693            36.63748            32.96883            38.93548            33.06687            37.43409            31.08609            43.56897            29.14548            38.39802            35.04544            44.41223            37.60216            34.48289            43.61417            38.42261            36.14453            37.29468            36.74235            42.31299            30.09086            43.57733            46.07103            35.48060            38.57772            34.52341            45.98258            45.12237            42.16000            34.04392            41.05444            27.60340            34.75370            31.90409            38.69433            35.21076            43.59108            39.65628            43.51726            38.68326            35.17709            29.57180            34.47354            43.48085            42.52050            32.85911            40.63555            38.51613            29.54511            30.39446            42.07385            35.37748            38.54306            36.99415            35.73446            33.84156            44.90208            42.57623            35.13725            44.91360            34.50534            44.67997            42.68233            38.04928            41.35295            44.13375            39.81856            38.55955            34.44130            44.72430            44.67018            33.76042            36.50365            35.36776            36.99669            35.90868            33.06545            30.65807            45.32087            30.74272            39.31756            42.54944            35.78617            42.39283            38.57597            36.77981            32.49554            43.50638            34.76962            37.54049            36.85432            33.34814            41.15740            44.59344            40.07952            38.28935            38.82389            43.38331            33.42603            34.59112            41.26848            34.91574            35.99331            36.55332            45.71326            34.22671            35.76101            43.26976            35.35596            34.73805            36.64210            38.05122            42.17998            35.04758            37.23190            39.72898            37.35825            30.48694            35.95089            27.23181            35.75797            29.23360            31.72013            39.19158            38.42023            30.09762            34.01615            44.57446            36.03105            42.13418            32.93997            36.91761            31.82492            42.73180            42.96336            32.13973            43.23922            32.27252            35.80447            32.76457            44.18810            44.79432            37.30087            34.99441            44.56744            34.41231            34.40016            35.33631            35.33831            35.19674            35.70455            39.07439            38.82661            40.11060            38.16733            42.80025            36.99884            34.53006            36.68236            42.51565            33.81627            26.39830            35.77429            36.22426            40.52150            43.13270            33.17250            43.42106            36.75001            37.80065            33.44288            44.12519            38.00701            40.98000            36.52257            36.47916            33.09956            37.29485            38.33817            35.95007            37.39882            35.93632            36.51904            38.44620            32.20925            37.08783            36.27976            37.58196            32.80670            34.11866            35.43196            44.54077            35.36647            38.30119            39.37682            35.50281            43.14732            36.62564            42.64999            37.19172            40.78846            35.26623            36.62452            37.84578            34.67041            36.26342            40.44844            34.87089            39.05269            32.28263            36.15528            44.48128            35.96455            33.54641            35.60960            42.68164            38.66727            36.35132            42.15377            35.88883            36.69483            38.41085            33.32641            31.43145            44.32446            38.62625            36.47915            32.01546            37.86516            42.85615            31.00617            39.69755            31.97908            34.26262            37.39750            36.27109            41.72800            31.77349            30.94004            38.79204            35.08767            30.97632            29.41989            44.64715            33.96285            35.65950            46.76365            37.62165            35.54586            34.98871            43.51603            35.96772            36.95704            38.56322            28.02784            40.50725            35.45756            33.30740            35.66091            39.12830            39.42367            37.33508            35.80598            37.19678            41.03334            44.35673            44.97302            37.22050            34.18346            34.83721            35.76774            35.74202            38.21112            32.98029            29.92453            34.67383            34.60989            33.35037            38.94009            47.23297            28.97609            39.80593            33.40410            38.46150            39.22544            35.38731            33.15258            41.48585            41.03008            39.70597            35.56533            40.12338            38.91435            34.51097            38.41675            40.72488            38.18128            33.77553            35.44133            38.61543            32.55978            35.86934            34.18853            39.23478            42.56924            38.54803            34.68682            34.05782            35.01233            44.24921            32.59118            42.94483            40.93799            43.46647            45.88907            35.81695            41.25951            35.24393            44.54483            35.48437            35.05132            42.78172            35.47670            35.06785            38.07861            43.38904            36.45665            32.22044            33.76026            29.25468            42.71415            38.25037            43.59598            36.80919            40.64508            40.35916            42.75429            39.33061            45.27046            35.07444            42.66363            36.37839            35.81599            41.39059            36.65984            34.19299            38.85180            36.33099            42.19920            33.79310            34.49549            41.34084            37.94517            28.66617            35.69382            32.01107            34.32328            41.28106            39.74766            36.28906            44.39334            46.59086            44.20383            40.41882            36.56623            35.50505            44.12163            43.40968            32.98410            38.12357            34.33849            35.35011            38.78416            41.82584            44.50781            39.96870            45.12073            37.24708            37.45907            35.58010            34.54427            34.55006            36.84439            38.94274            28.76750            36.81649            36.04575            36.66082            35.80850            37.21402            33.58907            38.18578            35.22491            44.47019            39.68563            41.22981            37.78784            32.11410            38.46287            45.50433            35.84821            39.24213            38.38603            38.87796            40.59062            41.62826            40.88148            45.68553            34.66656            42.48601            42.74499            35.71980            46.82648            44.30718            37.37926            39.18373            33.64281            36.96126            35.15119            46.65059            40.71963            43.01207            47.05049            41.08530            41.38790            34.44658            35.55880            43.46771            42.69846            33.22686            35.75011            35.46319            35.28543            45.71007            38.85221            38.79294            41.04210            35.60249            38.85342            44.68792            33.99394            38.65284            42.93103            35.67512            32.07739            38.14066            35.94177            30.73247            42.64713            38.42849            43.31161            37.78117            36.94014            31.00459            35.03801            34.95241            37.03704            35.49568            40.21386            34.92000            45.07602            36.73604            42.02929            36.43674            27.69396            37.05244            33.91568            41.70253            44.89560            38.64618            34.32974            32.70552            39.21216            38.30515            38.88402            36.82986            44.99588            40.45114            35.64096            43.43947            33.07199            44.25311            32.78739            43.19476            35.99990            42.49830            33.58399            41.83545            36.94512            31.07643            34.98094            32.17512            36.03268            44.12410            43.30099            36.08430            35.00777            41.39320            38.51230            44.24461            37.28142            44.19626            37.10800            39.28082            35.96664            36.75792            35.54799            35.47732            46.41467            45.09448            34.14168            35.57308            35.06593            38.28831            38.68735            34.97070            36.90365            30.36283            38.31924            36.19982            44.18665            36.60102            36.22903            37.06843            37.74605            31.84361            30.53376            44.51262            37.49213            30.02359            42.53477            33.78193            35.07874            38.48881            34.70601            37.93805            33.39627            36.16758            31.28576            38.79810            36.07019            38.38967            37.38697            32.54689            26.51728            38.83808            27.54589            35.21618            37.00707            35.78592            35.81680            36.48060            26.87279            34.03102            32.39336            45.12413            26.54301            38.14133            44.33116            35.56666            37.06182            33.96209            44.39755            37.80596            33.40249            38.92195            36.08803            38.30808            36.52281            38.94973            32.72075            36.67972            35.58278            33.92140            44.51420            35.75403            34.30816            38.42089            44.37235            34.77658            39.90756            28.66265            33.26786            38.84324            39.58957            36.49883            45.42690            35.64432            38.36892            36.81486            44.58441            35.58633            35.18760            38.92866            45.16140            35.24370            35.75069            42.19773            34.88179            41.15397            42.55386            37.31722            39.17614            36.91099            36.96213            37.73989            44.87089            38.01221            37.72716            41.13891            34.74782            36.56977            43.66873            37.07256            37.08261            30.18941            35.61935            43.23273            36.72720            35.82821            44.38382            36.26419            32.39518            45.19369            33.96511            36.68425            34.49637            42.81394            34.29365            38.35563            33.57011            34.98585            36.28448            44.04215            37.48652            38.66788            45.88016            45.00930            36.60596            35.76367            37.30586            29.08628            38.75807            43.25300            36.47800            26.30917            31.46998            43.07243            42.59726            42.60219            40.53586            44.04850            42.76223            39.27334            36.48508            34.18032            44.86040            34.47925            45.84582            45.05168            38.86549            45.89658            33.33262            42.79032            36.23415            42.90299            39.30671            38.84876            35.93325            42.72224            35.84584            39.52671            40.08805            37.11996            35.04266            41.89115            34.98236            33.71853            42.56816            34.34649            42.52296            28.03368            35.15954            46.01040            37.46861            35.73061            43.14530            38.83659            45.98752            33.60398            42.45297            29.94584            35.68141            36.06061            35.27642            39.22857            40.33848            44.52077            36.60979            42.83019            42.80574            43.07436            33.78610            44.82348            35.38934            39.67725            42.75129            36.89104            36.51029            38.48399            35.39402            38.87715            43.96972            35.89161            31.46608            36.23254            27.70942            44.25650            38.63048            28.75827            35.76081            35.14107            36.20869            38.76300            35.35625            30.43386            36.46386            37.90720            36.71199            27.77384            33.46549            45.55282            39.93484            40.81471            44.17860            41.22390            39.22573            30.94618            35.01713            38.66509            34.26324            36.16875            38.99285            46.03787            35.17472            39.53414            34.83850            37.87689            37.39869            38.74166            31.48969            36.90291            44.97125            39.83060            36.25580            38.19278            36.01178            42.25694            35.55074            39.00629            43.99804            38.41651            35.80194            39.57407            35.59025            34.50836            38.17639            38.41056            36.35479            35.60420            32.30038            41.38517            36.05594            35.47278            32.11185            35.17848            38.01774            34.61759            34.88650            28.54720            36.77775            35.60424            28.68673            32.68642            45.49017            37.00793            40.63370            34.94977            40.98170            37.14883            31.49015            30.90245            42.95487            37.35800            37.15125            36.45881            31.09198            35.30199            41.25732            37.71280            34.74530            32.55116            32.16778            34.76722            42.58652            35.09928            35.84986            37.03666            39.25134            35.79467            36.67588            32.88359            38.14775            35.83524            43.94328            31.23475            32.05625            43.26362            42.30256            39.16372            36.06204            44.14540            43.29847            44.92474            43.98598            42.73893            35.51468            33.73504            39.14818            33.40187            31.56898            42.52487            34.67726            35.41941            28.91378            36.67761            42.71666            37.31818            36.73597            38.97774            39.35111            33.12733            30.07463            45.77731            36.09070            40.95248            37.16251            40.90203            42.08713            33.81032            32.26364            44.53688            37.36416            44.27112            38.32237            38.33286            35.22823            43.27968            35.96320            36.48924            31.70232            37.42908            33.40660            34.49627            34.15027            43.02875            41.01853            34.89739            35.26431            37.86885            35.55107            41.25503            32.50827            38.84219            44.21419            37.86334            41.17624            43.83226            45.06167            38.45290            30.33556            32.71307            34.82470            35.40504            39.14226            34.20854            30.06171            44.54492            33.97512            34.22811            31.96828            34.17665            30.51145            43.38178            35.32283            43.56576            40.31200            44.19444            45.07488            38.15587            44.77639            43.41812            32.48697            37.98468            37.73128            41.87877            34.68714            44.02325            35.25711            39.37310            46.12186            43.48430            45.02213            42.62348            35.68325            29.31824            37.91906            36.96417            35.73421            42.68829            41.87629            26.64443            44.73022            36.71353            33.48431            35.54092            43.31853            36.20987            36.71600            42.99583            38.43301            27.75769            42.58562            37.18453            38.57993            32.73186            36.15837            32.35637            37.82910            42.45675            38.83432            36.50210            38.79425            37.95984            36.79951            41.43562            32.30149            26.73273            42.41966            40.06641            43.49289            36.64139            36.82897            32.20067            35.54562            41.86527            38.36476            36.82193            42.58187            34.74831            45.84136            35.90579            35.21543            44.39190            34.94392  