# vtk DataFile Version 3.0
Output from R3t
ASCII
DATASET UNSTRUCTURED_GRID
POINTS       8966 double
      0.50000000E-01     -0.50000000E-02      0.48500000E+00
      0.10000000E+00     -0.50000000E-02      0.48500000E+00
      0.15000000E+00     -0.50000000E-02      0.48500000E+00
      0.20000000E+00     -0.50000000E-02      0.48500000E+00
      0.25000000E+00     -0.50000000E-02      0.48500000E+00
      0.30000000E+00     -0.50000000E-02      0.48500000E+00
      0.35000000E+00     -0.50000000E-02      0.48500000E+00
      0.40000000E+00     -0.50000000E-02      0.48500000E+00
      0.50000000E-01      0.00000000E+00      0.42500000E+00
      0.10000000E+00      0.00000000E+00      0.42500000E+00
      0.15000000E+00      0.00000000E+00      0.42500000E+00
      0.20000000E+00      0.00000000E+00      0.42500000E+00
      0.25000000E+00      0.00000000E+00      0.42500000E+00
      0.30000000E+00      0.00000000E+00      0.42500000E+00
      0.35000000E+00      0.00000000E+00      0.42500000E+00
      0.40000000E+00      0.00000000E+00      0.42500000E+00
      0.50000000E-01      0.00000000E+00      0.37500000E+00
      0.10000000E+00      0.00000000E+00      0.37500000E+00
      0.15000000E+00      0.00000000E+00      0.37500000E+00
      0.20000000E+00      0.00000000E+00      0.37500000E+00
      0.25000000E+00      0.00000000E+00      0.37500000E+00
      0.30000000E+00      0.00000000E+00      0.37500000E+00
      0.35000000E+00      0.00000000E+00      0.37500000E+00
      0.40000000E+00      0.00000000E+00      0.37500000E+00
      0.50000000E-01      0.00000000E+00      0.32500000E+00
      0.10000000E+00      0.00000000E+00      0.32500000E+00
      0.15000000E+00      0.00000000E+00      0.32500000E+00
      0.20000000E+00      0.00000000E+00      0.32500000E+00
      0.25000000E+00      0.00000000E+00      0.32500000E+00
      0.30000000E+00      0.00000000E+00      0.32500000E+00
      0.35000000E+00      0.00000000E+00      0.32500000E+00
      0.40000000E+00      0.00000000E+00      0.32500000E+00
      0.50000000E-01      0.00000000E+00      0.27500000E+00
      0.10000000E+00      0.00000000E+00      0.27500000E+00
      0.15000000E+00      0.00000000E+00      0.27500000E+00
      0.20000000E+00      0.00000000E+00      0.27500000E+00
      0.25000000E+00      0.00000000E+00      0.27500000E+00
      0.30000000E+00      0.00000000E+00      0.27500000E+00
      0.35000000E+00      0.00000000E+00      0.27500000E+00
      0.40000000E+00      0.00000000E+00      0.27500000E+00
      0.50000000E-01      0.00000000E+00      0.22500000E+00
      0.10000000E+00      0.00000000E+00      0.22500000E+00
      0.15000000E+00      0.00000000E+00      0.22500000E+00
      0.20000000E+00      0.00000000E+00      0.22500000E+00
      0.25000000E+00      0.00000000E+00      0.22500000E+00
      0.30000000E+00      0.00000000E+00      0.22500000E+00
      0.35000000E+00      0.00000000E+00      0.22500000E+00
      0.40000000E+00      0.00000000E+00      0.22500000E+00
      0.50000000E-01      0.00000000E+00      0.17500000E+00
      0.10000000E+00      0.00000000E+00      0.17500000E+00
      0.15000000E+00      0.00000000E+00      0.17500000E+00
      0.20000000E+00      0.00000000E+00      0.17500000E+00
      0.25000000E+00      0.00000000E+00      0.17500000E+00
      0.30000000E+00      0.00000000E+00      0.17500000E+00
      0.35000000E+00      0.00000000E+00      0.17500000E+00
      0.40000000E+00      0.00000000E+00      0.17500000E+00
      0.50000000E-01      0.00000000E+00      0.12500000E+00
      0.10000000E+00      0.00000000E+00      0.12500000E+00
      0.15000000E+00      0.00000000E+00      0.12500000E+00
      0.20000000E+00      0.00000000E+00      0.12500000E+00
      0.25000000E+00      0.00000000E+00      0.12500000E+00
      0.30000000E+00      0.00000000E+00      0.12500000E+00
      0.35000000E+00      0.00000000E+00      0.12500000E+00
      0.40000000E+00      0.00000000E+00      0.12500000E+00
      0.50000000E-01      0.00000000E+00      0.75000000E-01
      0.10000000E+00      0.00000000E+00      0.75000000E-01
      0.15000000E+00      0.00000000E+00      0.75000000E-01
      0.20000000E+00      0.00000000E+00      0.75000000E-01
      0.25000000E+00      0.00000000E+00      0.75000000E-01
      0.30000000E+00      0.00000000E+00      0.75000000E-01
      0.35000000E+00      0.00000000E+00      0.75000000E-01
      0.40000000E+00      0.00000000E+00      0.75000000E-01
      0.00000000E+00      0.00000000E+00      0.00000000E+00
      0.45000000E+00      0.00000000E+00      0.00000000E+00
      0.00000000E+00      0.00000000E+00      0.50000000E+00
      0.45000000E+00      0.00000000E+00      0.50000000E+00
      0.00000000E+00     -0.30000000E-01      0.00000000E+00
      0.45000000E+00     -0.30000000E-01      0.00000000E+00
      0.00000000E+00     -0.30000000E-01      0.50000000E+00
      0.45000000E+00     -0.30000000E-01      0.50000000E+00
      0.11241060E-01      0.00000000E+00      0.11242680E-01
      0.64991060E-01      0.00000000E+00      0.11242680E-01
      0.11874106E+00      0.00000000E+00      0.11242680E-01
      0.17249106E+00      0.00000000E+00      0.11242680E-01
      0.22624106E+00      0.00000000E+00      0.11242680E-01
      0.27999106E+00      0.00000000E+00      0.11242680E-01
      0.33374106E+00      0.00000000E+00      0.11242680E-01
      0.38749106E+00      0.00000000E+00      0.11242680E-01
      0.44124106E+00      0.00000000E+00      0.11242680E-01
      0.11241060E-01      0.00000000E+00      0.64992680E-01
      0.64991060E-01      0.00000000E+00      0.64992680E-01
      0.11874106E+00      0.00000000E+00      0.64992680E-01
      0.17249106E+00      0.00000000E+00      0.64992680E-01
      0.22624106E+00      0.00000000E+00      0.64992680E-01
      0.27999106E+00      0.00000000E+00      0.64992680E-01
      0.33374106E+00      0.00000000E+00      0.64992680E-01
      0.38749106E+00      0.00000000E+00      0.64992680E-01
      0.44124106E+00      0.00000000E+00      0.64992680E-01
      0.11241060E-01      0.00000000E+00      0.11874268E+00
      0.64991060E-01      0.00000000E+00      0.11874268E+00
      0.11874106E+00      0.00000000E+00      0.11874268E+00
      0.17249106E+00      0.00000000E+00      0.11874268E+00
      0.22624106E+00      0.00000000E+00      0.11874268E+00
      0.27999106E+00      0.00000000E+00      0.11874268E+00
      0.33374106E+00      0.00000000E+00      0.11874268E+00
      0.38749106E+00      0.00000000E+00      0.11874268E+00
      0.44124106E+00      0.00000000E+00      0.11874268E+00
      0.11241060E-01      0.00000000E+00      0.17249268E+00
      0.64991060E-01      0.00000000E+00      0.17249268E+00
      0.11874106E+00      0.00000000E+00      0.17249268E+00
      0.17249106E+00      0.00000000E+00      0.17249268E+00
      0.22624106E+00      0.00000000E+00      0.17249268E+00
      0.27999106E+00      0.00000000E+00      0.17249268E+00
      0.33374106E+00      0.00000000E+00      0.17249268E+00
      0.38749106E+00      0.00000000E+00      0.17249268E+00
      0.44124106E+00      0.00000000E+00      0.17249268E+00
      0.11241060E-01      0.00000000E+00      0.22624268E+00
      0.64991060E-01      0.00000000E+00      0.22624268E+00
      0.11874106E+00      0.00000000E+00      0.22624268E+00
      0.17249106E+00      0.00000000E+00      0.22624268E+00
      0.22624106E+00      0.00000000E+00      0.22624268E+00
      0.27999106E+00      0.00000000E+00      0.22624268E+00
      0.33374106E+00      0.00000000E+00      0.22624268E+00
      0.38749106E+00      0.00000000E+00      0.22624268E+00
      0.44124106E+00      0.00000000E+00      0.22624268E+00
      0.11241060E-01      0.00000000E+00      0.27999268E+00
      0.64991060E-01      0.00000000E+00      0.27999268E+00
      0.11874106E+00      0.00000000E+00      0.27999268E+00
      0.17249106E+00      0.00000000E+00      0.27999268E+00
      0.22624106E+00      0.00000000E+00      0.27999268E+00
      0.27999106E+00      0.00000000E+00      0.27999268E+00
      0.33374106E+00      0.00000000E+00      0.27999268E+00
      0.38749106E+00      0.00000000E+00      0.27999268E+00
      0.44124106E+00      0.00000000E+00      0.27999268E+00
      0.11241060E-01      0.00000000E+00      0.33374268E+00
      0.64991060E-01      0.00000000E+00      0.33374268E+00
      0.11874106E+00      0.00000000E+00      0.33374268E+00
      0.17249106E+00      0.00000000E+00      0.33374268E+00
      0.22624106E+00      0.00000000E+00      0.33374268E+00
      0.27999106E+00      0.00000000E+00      0.33374268E+00
      0.33374106E+00      0.00000000E+00      0.33374268E+00
      0.38749106E+00      0.00000000E+00      0.33374268E+00
      0.44124106E+00      0.00000000E+00      0.33374268E+00
      0.11241060E-01      0.00000000E+00      0.38749268E+00
      0.64991060E-01      0.00000000E+00      0.38749268E+00
      0.11874106E+00      0.00000000E+00      0.38749268E+00
      0.17249106E+00      0.00000000E+00      0.38749268E+00
      0.22624106E+00      0.00000000E+00      0.38749268E+00
      0.27999106E+00      0.00000000E+00      0.38749268E+00
      0.33374106E+00      0.00000000E+00      0.38749268E+00
      0.38749106E+00      0.00000000E+00      0.38749268E+00
      0.44124106E+00      0.00000000E+00      0.38749268E+00
      0.11241060E-01      0.00000000E+00      0.44124268E+00
      0.64991060E-01      0.00000000E+00      0.44124268E+00
      0.11874106E+00      0.00000000E+00      0.44124268E+00
      0.17249106E+00      0.00000000E+00      0.44124268E+00
      0.22624106E+00      0.00000000E+00      0.44124268E+00
      0.27999106E+00      0.00000000E+00      0.44124268E+00
      0.33374106E+00      0.00000000E+00      0.44124268E+00
      0.38749106E+00      0.00000000E+00      0.44124268E+00
      0.44124106E+00      0.00000000E+00      0.44124268E+00
      0.11241060E-01      0.00000000E+00      0.49499268E+00
[...]
POINT_DATA      8966
CELL_DATA     34178
SCALARS Resistivity(ohm.m) double 1
LOOKUP_TABLE default
            17.20464            18.26372            29.75884            20.56659            22.18717            19.83083            33.27622            25.81990            30.03669            10.97379            18.78147            24.44935            30.96744            20.11047            26.37246            29.82502            37.46274            24.51250             9.79375            30.20266            30.33935            21.81330            32.65080             5.25248            18.87678            36.68721            37.33630            30.27142            38.08069            43.77038            28.92479             6.88363            27.55704            37.64414            36.63944            27.98061            17.23512            10.65587            29.52273            18.30385            30.63851            20.45095            10.20371            34.85352            15.13521            31.86733            23.74975            49.09135            15.45998            12.77061            27.84489            21.19387            22.73979            22.61448            13.19315            37.55271            12.82988            30.50474            22.88392             5.40452            24.24358            22.73067            25.82376            22.18625            37.54358            41.58532            41.61895            13.29331             7.55176             9.20985            35.25678            46.83639            11.77311            34.55186            31.49140            18.18172            48.15975            27.46522             9.13636            35.94221             4.84075            32.04733            22.86184            39.27013            35.80597            30.60895            23.40799            14.75525            10.81219            29.76718            25.80662            37.01502            36.34484            37.12659             7.18967            32.43092            38.05621            21.47812            38.29080            36.75125            15.01069            13.17114            26.42670            16.85831             5.60579            17.93949            17.86922            36.43309            13.43712            28.28123            33.08367            33.83725            30.80736            29.11961            39.10300             6.62521            33.93659            10.83622            22.81432            30.91256            23.28470            11.16146             8.06779            29.11056            26.34064            12.00341            31.57846            33.08232            36.34002            30.01577            36.67200            31.74135            17.02698            26.58348            30.03196            26.03275            34.82748            30.41714            12.13984            27.95020            10.06862            30.74327            11.54390            29.27742            12.70958            28.41784            20.25961             8.97955            27.27900            20.45630             7.94160            30.91027            18.05953            27.89726            32.81037            24.23416            34.70653            39.25973            31.02788            23.73494            13.18629            18.85205            26.78493            20.82117            37.35823            34.92234            44.18693            27.92595            35.14491            38.98528            10.89944            30.52585            35.31604            23.76040            32.97318            19.84512             6.63382            11.34686            30.77382            18.56277            37.13779            26.24383            29.90330            23.10534            22.79186            18.96485             4.61053            30.83816            22.97875            10.39325             4.54394            37.00041            29.81496            19.61472            22.83146            33.08420            27.14884            31.17891            20.92318            20.18315            49.82922            31.26917             7.99397            29.05076            17.82233            17.62535            26.47197            10.95776            21.02330            24.87394            42.04137            11.36119            30.59270            32.55611            19.95485            25.85734            20.37472            11.30163            33.29027            28.07682            26.91803            35.76832             5.89481            12.43000            22.47923            10.89386            35.43205            23.53398            28.24219            20.79491            15.65331            29.90973            27.48418             9.76019            34.56620            30.97036            36.90654            38.64844            38.88200            41.57149            15.95796            40.63121            33.50297            28.10722            32.90121             7.13502            39.18763            32.84187            26.26603            23.04014            27.28138            28.15262            23.74669            31.28250            18.29112            17.39759            20.90833            33.91006            30.69265            37.74599            22.48638            36.56034            13.08696             8.60961            24.86137             9.95785            26.22001            30.76848            25.27276            28.50168            17.60406            27.01361            14.27865            22.07628            40.40821            43.17908            25.94021            46.82964            37.61704            33.20183            36.19420            15.84309            32.23043            17.91966            20.20684            30.54024            23.06279            27.95963             5.55781            38.23039            31.61854            30.11924             8.23334            35.77554            25.35239            26.49570            18.62956            18.17192            35.63440            37.58440            31.52898            33.82830            45.70781            28.44492            20.80287            16.94346            21.02223            29.70081            27.10127            39.15209             4.61790            18.88089            27.20303            24.55802            28.91665            19.92647            34.08983            26.41700            30.73454            11.10125            42.31268            26.56336             6.29987            25.92528            23.29905            34.56118            34.89992            28.10837             9.77516            16.78169            32.75118            27.56832            24.03195            31.09790            35.14400            37.95252            25.96242            22.90143            19.08504            26.28071            21.41708            14.77258            38.01214            37.54559            18.60787            17.03844            27.04402            29.52635            25.66360            10.97189            23.26672            18.89030            35.96735            26.60408            10.95231            19.18011            23.00558            22.76235            23.95267             4.55424            33.56904            20.22258            13.43300            30.54001            23.55746            16.74865            38.77451            40.01673            30.75854            22.74218             6.01435            48.62074            10.24506            46.08249            35.86065            20.06064             8.21340            29.85763            35.14180            27.53818            15.47710            17.56634            27.23246            31.85758            23.24320            22.99278            30.61919            10.17162            34.19201            16.88039            29.20605            32.24937            38.07596            17.13740            36.04314            31.70943            31.80671            28.55711            32.67212            19.07148            28.80087            34.38056            23.35599            23.37888            20.12162            28.61769            24.10155            21.33782            43.25298            34.43911            17.20283            23.10553            25.46700             6.35728            47.33659             7.82466            20.69784            12.07893            32.71751            26.03340            32.16394            26.05783            26.60031            24.24400             5.07694            33.32712            37.95933            40.17412            33.54153            34.28854            31.30597            29.32378            36.50625            32.68858            41.17120            26.94462            11.08675            20.03021            30.59631            19.93069            37.12168            25.04469            38.50084            22.46015            23.38356            19.98701            33.76955            33.81962            30.26200            28.60811            22.96391            19.58259            33.18776            27.21109            37.46475            35.26234            33.65754            35.86417             8.55272            28.63561             4.96749            32.59771            23.87312            20.38881            31.61766            27.00443             6.06015            22.31494            19.74044            28.27091             9.64717             4.82107            22.47262            19.17022            47.69260            31.15656            24.39168             6.07707            32.72452            14.50195            35.77767            20.69720            13.51841            23.00274            14.68162            38.17299            13.53774            22.29502            37.01462             8.73067            29.10080            26.26560            32.40105            20.68906            30.78884            20.40531            30.68194            26.43843            24.17632            23.99474            38.61304            31.57796            32.04326            15.82478            18.82571            38.72508            33.36383            10.88622            31.93763            11.48978            43.50521            33.25673            33.43291            27.69050            33.28431            21.65834            36.99178            31.22080            11.30481             9.66924             6.78949            25.50170            30.65811            32.49829            19.44190            28.62426            12.51383            25.68075            17.44299            28.89704             6.84961            37.60934            20.85259            31.63254            15.38530            26.70755            20.97051            11.61444             7.51877             8.35901            26.79903            23.79006            30.64106            24.04916            32.65111            31.82696            10.94491            16.58778            28.96681            26.66008            34.11489            46.20415            41.60325            12.26141            33.02720            16.11453            20.24936            39.90622            34.12093            19.95445             5.61231            29.96450            36.74210             9.81564            25.09136            40.49673            24.48604            32.25039            31.54984            40.41782            30.00472            12.29313            10.52692            35.18331            27.71857            32.92040            45.00033            11.52780             7.96269            28.55359            22.82704            23.14595            11.64227            26.74145            30.44255            24.16854            21.50124            28.17555            30.84367            28.15018            34.19048            26.71410            38.73686            12.03547            19.92311            39.50761            23.43401            15.60362            31.82375            43.17522            38.49563            21.73572            31.50851            22.39506            22.77268            40.68426            28.32861            11.88917            16.17250            21.10441            29.23126             8.36136            32.33371            31.05501            15.85053            23.40160            30.82997            28.08514            26.74674            32.80188            18.12688            18.59654             7.40208            22.46831            30.78595            38.27758            21.90109            22.77875            21.39761            12.88880            23.09333            25.44680            23.12609            39.04472            43.47032             7.79726            11.50565            17.46802             4.87456            33.25171             6.03823            10.18449            23.17883            20.18833            26.47766            33.55572            25.80551            37.06266            25.69962            35.11794            26.29236             7.98004            21.91985            17.65749            30.59854            18.57339            20.53707            35.44418            37.10954            30.79529            11.81642            11.16663            34.45660            46.18997            28.66593            23.30686            11.64228            31.05189            30.91593            23.30201            34.45148            28.02188            21.03555             7.91947            41.85960            35.27355            28.08666            20.45961            32.05428            23.45734            10.92369            21.04524            19.83288            20.11928            21.84062            24.38135            28.11062            28.42798            23.53150            23.95404            23.18378            31.41576            33.96714            40.06965            17.89345             5.88977            29.25576            36.69697            30.71505            26.05583            12.45813            29.49598            26.61538            36.90773            20.74920            28.95852            34.83301            20.71705            20.52608            30.83721            13.36007            33.07278            26.77544            37.11243            20.63078            27.16422            24.01697            17.36651            37.43782            41.49684            10.35846            30.92361            10.28203            35.07574            12.34738            20.65713            13.29502            22.66187            31.27501            24.34556            37.89549            32.18450             5.04626            13.89183            25.60426            31.20676            26.92796            21.13922            42.13785            46.99814            26.25912            11.20892            30.73713            11.39378            25.85370            30.58653             7.07993            23.14511            18.14949            24.18689            34.48806            25.13098            22.64628             5.07259            21.05389            24.07264            27.97107            39.07771            19.30385            40.40849            22.75896            29.69810            26.26215            31.69922            34.31207            12.73011            20.01489            21.44589            30.29549            37.56354            44.63071            16.51380            19.87376             5.96956            19.51780            22.79422            28.30859            14.30695            37.52920            35.82187            40.47886            21.32832            26.24521            31.21478            23.63166            35.16194            37.89876            23.38894            20.99031            28.30145            22.11462            38.07807            43.15417            30.85331             8.91699            21.18359            25.93482            23.00341            23.71418            23.15956            11.85886            35.78649            30.39058            15.49866            22.57883            25.21791            22.03173            22.25620            17.99973            35.13848            34.36022            34.58743            22.88918            33.27391            38.49493            21.49376            33.88145            17.79314            30.44710             5.80668            10.92870            11.23747            13.05139            23.00632            23.29624            10.96583            13.27074            23.64460            21.94897            11.12872            30.90236            23.91496            37.73168            41.42878            31.65851            22.74370            32.30599            15.09968             6.72114            22.40923            20.08126            33.32073            45.25556            30.56201            27.89335            32.01067            26.04447            37.80248            22.29320             4.89296            19.29710            23.45312            15.23371            23.64769            36.67501            41.07199            37.41102            13.40773            17.44881            26.33475            28.55967            31.66241            23.38918             6.81268            29.42573            13.13215            37.18075            34.10431            37.40120            20.13470            14.50121            32.51352            11.30125            22.18483             9.58040            40.32101            33.15872            42.78702            26.76987            35.39643            38.06375            18.00769            24.25600            33.78929            39.07889            34.04951             7.49942            24.64829            31.93845            25.89633            26.81147            35.42764            40.70034            38.51546            26.26309            17.38772            34.22603            30.37194            35.21416            22.53263            20.47243            35.00380            24.46010            21.82584            19.93008            11.77388            31.68526            24.10384            37.82270            19.94192            27.34556            33.15293            28.15806            38.76837            37.82501            32.45505            31.75338             6.31144            26.02568            31.34908            22.57302            22.71035            47.28426            23.62288             7.46512            38.70930            22.02789            23.87909            33.13196            23.28800            31.03504            26.58158            37.10281            20.20580             9.40872            11.27366            43.23613            19.15228             6.97402            38.68246            11.77677            12.72666            10.86467             7.92371            11.18465            26.77929            11.68268            31.23060            32.24348            22.12093            29.32967             8.68818            31.35388            36.58199             9.91441            18.66442            35.69690            28.76399            19.10169            16.90338            31.96450            27.67158            28.69157            24.01206            37.03903            10.79255            31.29627            44.30449             5.38980             9.58884            26.12412             8.93642            31.50722            13.02110            17.74063            42.44430            34.17285            34.50834            31.52745            44.24977            27.73369            38.91717             7.36952            32.24836             7.98287            21.80120             4.62028            39.37291            29.77843            17.57946            17.27787            36.54159             5.01226            24.34746            23.16310  