# vtk DataFile Version 3.0
Output from R3t
ASCII
DATASET UNSTRUCTURED_GRID
POINTS       9925 double
      0.60000000E-01      0.00000000E+00      0.48700000E+00
      0.11000000E+00      0.00000000E+00      0.48700000E+00
      0.16000000E+00      0.00000000E+00      0.48700000E+00
      0.21000000E+00      0.00000000E+00      0.48700000E+00
      0.26000000E+00      0.00000000E+00      0.48700000E+00
      0.31000000E+00      0.00000000E+00      0.48700000E+00
      0.36000000E+00      0.00000000E+00      0.48700000E+00
      0.41000000E+00      0.00000000E+00      0.48700000E+00
      0.60000000E-01      0.00000000E+00      0.43500000E+00
      0.11000000E+00      0.00000000E+00      0.43500000E+00
      0.16000000E+00      0.00000000E+00      0.43500000E+00
      0.21000000E+00      0.00000000E+00      0.43500000E+00
      0.26000000E+00      0.00000000E+00      0.43500000E+00
      0.31000000E+00      0.00000000E+00      0.43500000E+00
      0.36000000E+00      0.00000000E+00      0.43500000E+00
      0.41000000E+00      0.00000000E+00      0.43500000E+00
      0.60000000E-01      0.00000000E+00      0.38500000E+00
      0.11000000E+00      0.00000000E+00      0.38500000E+00
      0.16000000E+00      0.00000000E+00      0.38500000E+00
      0.21000000E+00      0.00000000E+00      0.38500000E+00
      0.26000000E+00      0.00000000E+00      0.38500000E+00
      0.31000000E+00      0.00000000E+00      0.38500000E+00
      0.36000000E+00      0.00000000E+00      0.38500000E+00
      0.41000000E+00      0.00000000E+00      0.38500000E+00
      0.60000000E-01      0.00000000E+00      0.33500000E+00
      0.11000000E+00      0.00000000E+00      0.33500000E+00
      0.16000000E+00      0.00000000E+00      0.33500000E+00
      0.21000000E+00      0.00000000E+00      0.33500000E+00
      0.26000000E+00      0.00000000E+00      0.33500000E+00
      0.31000000E+00      0.00000000E+00      0.33500000E+00
      0.36000000E+00      0.00000000E+00      0.33500000E+00
      0.41000000E+00      0.00000000E+00      0.33500000E+00
      0.60000000E-01      0.00000000E+00      0.28500000E+00
      0.11000000E+00      0.00000000E+00      0.28500000E+00
      0.16000000E+00      0.00000000E+00      0.28500000E+00
      0.21000000E+00      0.00000000E+00      0.28500000E+00
      0.26000000E+00      0.00000000E+00      0.28500000E+00
      0.31000000E+00      0.00000000E+00      0.28500000E+00
      0.36000000E+00      0.00000000E+00      0.28500000E+00
      0.41000000E+00      0.00000000E+00      0.28500000E+00
      0.60000000E-01      0.00000000E+00      0.23500000E+00
      0.11000000E+00      0.00000000E+00      0.23500000E+00
      0.16000000E+00      0.00000000E+00      0.23500000E+00
      0.21000000E+00      0.00000000E+00      0.23500000E+00
      0.26000000E+00      0.00000000E+00      0.23500000E+00
      0.31000000E+00      0.00000000E+00      0.23500000E+00
      0.36000000E+00      0.00000000E+00      0.23500000E+00
      0.41000000E+00      0.00000000E+00      0.23500000E+00
      0.60000000E-01      0.00000000E+00      0.18500000E+00
      0.11000000E+00      0.00000000E+00      0.18500000E+00
      0.16000000E+00      0.00000000E+00      0.18500000E+00
      0.21000000E+00      0.00000000E+00      0.18500000E+00
      0.26000000E+00      0.00000000E+00      0.18500000E+00
      0.31000000E+00      0.00000000E+00      0.18500000E+00
      0.36000000E+00      0.00000000E+00      0.18500000E+00
      0.41000000E+00      0.00000000E+00      0.18500000E+00
      0.60000000E-01      0.00000000E+00      0.13500000E+00
      0.11000000E+00      0.00000000E+00      0.13500000E+00
      0.16000000E+00      0.00000000E+00      0.13500000E+00
      0.21000000E+00      0.00000000E+00      0.13500000E+00
      0.26000000E+00      0.00000000E+00      0.13500000E+00
      0.31000000E+00      0.00000000E+00      0.13500000E+00
      0.36000000E+00      0.00000000E+00      0.13500000E+00
      0.41000000E+00      0.00000000E+00      0.13500000E+00
      0.60000000E-01      0.00000000E+00      0.85000000E-01
      0.11000000E+00      0.00000000E+00      0.85000000E-01
      0.16000000E+00      0.00000000E+00      0.85000000E-01
      0.21000000E+00      0.00000000E+00      0.85000000E-01
      0.26000000E+00      0.00000000E+00      0.85000000E-01
      0.31000000E+00      0.00000000E+00      0.85000000E-01
      0.36000000E+00      0.00000000E+00      0.85000000E-01
      0.41000000E+00      0.00000000E+00      0.85000000E-01
      0.00000000E+00      0.00000000E+00      0.00000000E+00
      0.47000000E+00      0.00000000E+00      0.00000000E+00
      0.00000000E+00      0.00000000E+00      0.50000000E+00
      0.47000000E+00      0.00000000E+00      0.50000000E+00
      0.00000000E+00     -0.30000000E-01      0.00000000E+00
      0.47000000E+00     -0.30000000E-01      0.00000000E+00
      0.00000000E+00     -0.30000000E-01      0.50000000E+00
      0.47000000E+00     -0.30000000E-01      0.50000000E+00
      0.87687900E-02      0.00000000E+00      0.87627500E-02
      0.65643790E-01      0.00000000E+00      0.87627500E-02
      0.12251879E+00      0.00000000E+00      0.87627500E-02
      0.17939379E+00      0.00000000E+00      0.87627500E-02
      0.23626879E+00      0.00000000E+00      0.87627500E-02
      0.29314379E+00      0.00000000E+00      0.87627500E-02
      0.35001879E+00      0.00000000E+00      0.87627500E-02
      0.40689379E+00      0.00000000E+00      0.87627500E-02
      0.46376879E+00      0.00000000E+00      0.87627500E-02
      0.87687900E-02      0.00000000E+00      0.67637750E-01
      0.65643790E-01      0.00000000E+00      0.67637750E-01
      0.12251879E+00      0.00000000E+00      0.67637750E-01
      0.17939379E+00      0.00000000E+00      0.67637750E-01
      0.23626879E+00      0.00000000E+00      0.67637750E-01
      0.29314379E+00      0.00000000E+00      0.67637750E-01
      0.35001879E+00      0.00000000E+00      0.67637750E-01
      0.40689379E+00      0.00000000E+00      0.67637750E-01
      0.46376879E+00      0.00000000E+00      0.67637750E-01
      0.87687900E-02      0.00000000E+00      0.12651275E+00
      0.65643790E-01      0.00000000E+00      0.12651275E+00
      0.12251879E+00      0.00000000E+00      0.12651275E+00
      0.17939379E+00      0.00000000E+00      0.12651275E+00
      0.23626879E+00      0.00000000E+00      0.12651275E+00
      0.29314379E+00      0.00000000E+00      0.12651275E+00
      0.35001879E+00      0.00000000E+00      0.12651275E+00
      0.40689379E+00      0.00000000E+00      0.12651275E+00
      0.46376879E+00      0.00000000E+00      0.12651275E+00
      0.87687900E-02      0.00000000E+00      0.18538775E+00
      0.65643790E-01      0.00000000E+00      0.18538775E+00
      0.12251879E+00      0.00000000E+00      0.18538775E+00
      0.17939379E+00      0.00000000E+00      0.18538775E+00
      0.23626879E+00      0.00000000E+00      0.18538775E+00
      0.29314379E+00      0.00000000E+00      0.18538775E+00
      0.35001879E+00      0.00000000E+00      0.18538775E+00
      0.40689379E+00      0.00000000E+00      0.18538775E+00
      0.46376879E+00      0.00000000E+00      0.18538775E+00
      0.87687900E-02      0.00000000E+00      0.24426275E+00
      0.65643790E-01      0.00000000E+00      0.24426275E+00
      0.12251879E+00      0.00000000E+00      0.24426275E+00
      0.17939379E+00      0.00000000E+00      0.24426275E+00
      0.23626879E+00      0.00000000E+00      0.24426275E+00
      0.29314379E+00      0.00000000E+00      0.24426275E+00
      0.35001879E+00      0.00000000E+00      0.24426275E+00
      0.40689379E+00      0.00000000E+00      0.24426275E+00
      0.46376879E+00      0.00000000E+00      0.24426275E+00
      0.87687900E-02      0.00000000E+00      0.30313775E+00
      0.65643790E-01      0.00000000E+00      0.30313775E+00
      0.12251879E+00      0.00000000E+00      0.30313775E+00
      0.17939379E+00      0.00000000E+00      0.30313775E+00
      0.23626879E+00      0.00000000E+00      0.30313775E+00
      0.29314379E+00      0.00000000E+00      0.30313775E+00
      0.35001879E+00      0.00000000E+00      0.30313775E+00
      0.40689379E+00      0.00000000E+00      0.30313775E+00
      0.46376879E+00      0.00000000E+00      0.30313775E+00
      0.87687900E-02      0.00000000E+00      0.36201275E+00
      0.65643790E-01      0.00000000E+00      0.36201275E+00
      0.12251879E+00      0.00000000E+00      0.36201275E+00
      0.17939379E+00      0.00000000E+00      0.36201275E+00
      0.23626879E+00      0.00000000E+00      0.36201275E+00
      0.29314379E+00      0.00000000E+00      0.36201275E+00
      0.35001879E+00      0.00000000E+00      0.36201275E+00
      0.40689379E+00      0.00000000E+00      0.36201275E+00
      0.46376879E+00      0.00000000E+00      0.36201275E+00
      0.87687900E-02      0.00000000E+00      0.42088775E+00
      0.65643790E-01      0.00000000E+00      0.42088775E+00
      0.12251879E+00      0.00000000E+00      0.42088775E+00
      0.17939379E+00      0.00000000E+00      0.42088775E+00
      0.23626879E+00      0.00000000E+00      0.42088775E+00
      0.29314379E+00      0.00000000E+00      0.42088775E+00
      0.35001879E+00      0.00000000E+00      0.42088775E+00
      0.40689379E+00      0.00000000E+00      0.42088775E+00
      0.46376879E+00      0.00000000E+00      0.42088775E+00
      0.87687900E-02      0.00000000E+00      0.47976275E+00
      0.65643790E-01      0.00000000E+00      0.47976275E+00
      0.12251879E+00      0.00000000E+00      0.47976275E+00
      0.17939379E+00      0.00000000E+00      0.47976275E+00
      0.23626879E+00      0.00000000E+00      0.47976275E+00
      0.29314379E+00      0.00000000E+00      0.47976275E+00
      0.35001879E+00      0.00000000E+00      0.47976275E+00
      0.40689379E+00      0.00000000E+00      0.47976275E+00
      0.46376879E+00      0.00000000E+00      0.47976275E+00
      0.00000000E+00     -0.30000000E-01      0.10000000E-01
[...]
POINT_DATA      9925
CELL_DATA     38427
SCALARS Resistivity(ohm.m) double 1
LOOKUP_TABLE default
            13.35607            20.18863            29.08656            26.74263            31.13910            36.20361            14.65839            30.80668            33.12334            15.38460            30.02689            23.17327            24.21808            31.16064            29.26267            11.80680            12.01435            22.19592            14.91624            21.27479            23.62779            12.11737            14.03590            34.24961            18.52839            27.14695            22.48588            23.29340            22.80995            26.51848            32.53321            30.74734            17.45999            29.79872            26.92912            24.60650            25.73812            13.59377            33.77811            22.35079            26.41411            23.50126            33.47834            13.86762            26.74625            23.98808             9.44543            36.18527            27.96826            30.98938            13.74841            18.96142            34.65425            27.38866            23.33721            33.90876            24.12544            19.30510            23.31374            29.40694            31.08863            13.49149            28.36541            32.35361            29.49516            14.07513            16.18501            31.07379            27.98916            28.21331            23.43822            26.62482            25.78978            34.00356            18.89107            19.59923            28.90481            14.14356            30.72271            34.09803            30.71175            30.67008            29.01410            22.47606            29.30699            28.36684            13.07793            23.86724            35.77286            24.39778            32.69151            20.25484            20.58468            18.60275            31.75059            21.72779            19.24070            14.09580            33.83053            24.78546            25.21993            13.39676            22.93970            33.56833            35.39815            31.07818            17.72471            14.58864            32.40322            23.36151            20.88155            21.10851            24.83852            23.13492            36.57692            24.51836            25.75843            21.13434            29.26466            25.71332            19.25075            26.06966            34.33822            14.49219            27.68408            28.79739            30.64888            21.33229            22.39746            11.82578            25.93378            32.33228            17.08219            32.86965             8.34962            18.05849             9.27995            10.15055            33.73043            25.90425            36.37023             8.71652            29.60047            23.17230            23.95071            27.83639            35.45757            29.21339             8.71817            14.14640            24.14304            23.29375            12.20389            33.11334            14.88621            20.70113            16.76341            12.17994            16.25273            26.94146            16.12890            24.85549            20.91037            21.43464            28.97736            25.99345            29.62164            29.69168            25.69217            25.42283            22.64318            36.22303            25.55217            13.96112            23.85409            36.72547            19.03709            10.46953             8.99178            21.03456            22.56410             8.86357            18.73889            17.37794            11.93061            15.63762            27.80953            33.63750            22.96999            22.63703            25.83338            24.13948            24.59091            26.05324            23.85781            13.73930            13.24678            36.15775            24.00188            31.19189            23.11277            14.16646            35.43476            20.04590            34.53322            16.43612            18.45620            31.94925            26.64658            23.46279            20.96222            29.20965            35.32065            11.79562            25.44322            16.13582            19.69149            36.28804            19.41834            18.72750            25.90054            13.14088            17.46425            33.37473            34.70554            24.60168            14.11170            19.65085            29.90896            14.12687            21.58276            20.07793            26.60748            14.96265            32.60813            28.77943            34.01937            36.07634            34.64318            23.94899            34.65046            20.25437            25.88587            33.95189            35.33455            16.88227            29.35297            36.24526            18.48445            30.69047            35.35170            13.41143            21.30547            11.22969            35.56009            33.32709            24.29693            27.19233            30.31496            18.46497            30.01148            23.11985            23.68728            12.31443            29.60560            26.04519            36.38600            31.94291            27.49151            17.04885            27.26820            26.42832            26.80262            23.30426            24.51363            11.37928            23.06847            11.27048            29.33109            20.25602            31.17334            28.36456            12.64486            20.79192            16.72778            21.76059            25.85204            12.32381            25.52152            30.72417            32.71837            22.19161            33.90891            34.95043            34.61991            35.00475            15.20176            18.04658            17.43361            28.91704            19.15145            17.44732            18.07143            33.80355            29.40160            15.80088            30.90617            30.42840            23.76084            26.93416            30.21593            25.18584            27.28639             9.13676            35.28695            30.52677            18.40475            23.99834            26.90786            36.64275            19.32449            20.43207            10.64038            11.91058            14.17881            23.50664            14.65604            25.76493            27.59731            20.76881            21.32933            34.70005            12.77316            20.33887            14.39568            20.73962            10.16096            28.97608            15.81572            12.07682            22.56210            32.13553            25.91607            29.25739            16.01687            25.19297             9.57193            21.00093            22.00032            35.18237             9.94301            34.17223            23.13419            19.63378            17.84158            24.53947            11.85100            16.47825            22.54660            32.34055            30.02870            10.58421            29.58031            10.33416            11.25750            36.35652            25.05906            17.91838            24.11470            29.61893            26.09700            23.54038            11.83972            32.92366            35.15814            20.89492            13.21067            29.12565            30.26978            21.47240            15.27292            15.17439            25.53883            22.64233            24.09592            33.64308            11.60321            19.30347            27.80222            35.24908             8.99207             8.91618            32.47549            35.07773            13.02706            21.69797            15.84279            27.42056            31.81309            24.61220            30.54056            21.87274            19.25481            21.39824            34.90989            19.54511            25.75076            10.29054            27.31720            20.03823            31.31719             8.90239            11.74886            35.87446            35.87326            30.06172            13.87550            17.92655            11.56485            30.46097            30.71521            20.91738             8.32897            32.29904            21.34873            12.05490            15.90183            28.32850            18.57605            12.06335            13.08860            21.05097            24.40965            27.23159            25.15017            30.45214            14.79970            17.25097            33.38708            26.03767            20.99093            20.37581            11.16547            28.91669            29.27840            29.19650            14.70442            18.76184            29.93520            13.00203            22.79718            29.87427            24.96850            26.09234            12.83131            18.34662            25.51694            25.05620            34.65681            34.82801            11.82623            22.17865            31.04772            27.95826            32.00756            28.12365            27.93029            14.16698            20.73460            15.73836            20.93543            32.74292            33.56698            15.54708            18.29212            21.28768            29.07706            17.69196            23.41230            33.93710            10.47956            30.13602            11.83340            31.78804            27.88231            23.09622             9.90852            31.26088             8.56989            25.92069            27.34989            35.33873            23.77107            18.30827            22.01808            26.13901            20.42892            21.82242            27.14427            36.08173            15.37466            15.69291            21.10172            35.78603            18.51564            35.25057            19.39551            16.33603            35.78213            33.85545            17.29544            25.93312            27.09911            23.74413            12.14846            12.23329             9.51893            15.28687            21.89606            33.30627            28.53759            25.59270            26.22811            21.92681            33.80042            29.60551            26.69156            19.53574            23.56236            27.37506            32.43249            17.27815            35.40223            34.41809            27.20502            34.47395            18.89215            35.02166            21.85577            19.37603            33.78420            31.92039            19.95419            13.58489            24.15820            18.21442            19.60316            34.95774            21.28655            25.02527            23.73271            12.10871            31.41805            27.28399            13.52051            36.33027            29.71556            33.74433            20.47547            33.07940            35.00312            23.34215            32.10530            20.65144            29.18620            30.59048            34.96836            25.69011             8.63264            26.04517            23.92683            26.17549            34.74869            35.61524            32.40018            11.81336            36.21384            23.25206            29.29166            13.74607            30.61416            29.10885            16.32322            24.62058            33.14838            35.32412            15.92453            12.80740            22.00166            35.03441            35.14008            10.29663            21.70712            36.12449            34.91579            12.20863            16.16180             9.07635            23.18956            11.57287            10.53443            17.29807            22.51098            24.57189            30.32701             8.49971            15.38029            26.24776            21.30171            36.23504            12.27056            24.34751            11.98242            29.46161            16.26287            18.88336            34.70200            24.35793            31.11654            29.27232             9.67128             8.34411            27.80544            18.55895            23.55306            11.66943            29.92099            20.66089            19.87941            36.61373            10.54844             8.68059            32.78545            25.82438            36.40462            33.89975            10.12162            15.57748            31.37430            13.51490            23.21629            11.94368            21.86819            28.49582            18.32219            11.65957            22.03368            29.99630            29.64426            22.98411            12.95763            27.07952            16.74966            29.19463            36.31910            25.62567            18.23293             8.35175            22.17435            19.63186            18.29055            10.66067            12.79699            21.55651            16.14007            26.50133            33.34929            24.25550            33.96048            28.65236            32.29135            19.60128            14.18183            33.98014            34.87425            24.09345            23.04957            30.02097            30.96834            17.28530            17.59135            26.11367            23.12349            10.48965            24.31626            22.37449            11.94574            14.20842            19.37535            26.86340             9.85793             9.33683            12.24331             9.99243            15.00259            20.76013            26.13920            19.46700            31.24112            24.54324            21.58455            17.62893            26.24706            24.83024            13.69606            21.87324            27.23795             9.61484            29.14288            17.38739            25.24211            34.12129             8.76795            28.24567            19.23752             9.78550            18.62070            27.87179            13.85104            36.21702            26.24049            27.79786            31.06559            19.62908            22.00625            27.96160            35.43940            17.55816            28.91424            23.97010            27.53556            30.73007            19.65418            35.30733            22.17435            23.57392            24.25214            33.90061            35.52048            34.13199            29.24702            15.09746            35.35321            14.55549            34.67198             9.80900            34.77336            11.86416            19.82656            26.20884            13.52097            14.18578            14.80291            19.92432            29.25880            26.47361            27.09700            22.70594            27.48767            24.48584            23.94292            30.95079            30.03220            25.01615            34.82347            27.70632            22.53875            22.54867            33.77929            27.40704            17.83155            24.78332            12.66263            29.25241            16.40918            12.33021            30.45265            24.87460            20.15602            25.50716            21.77327            15.87149            14.86657            18.36506            33.88998             9.04197            24.10634            23.49581            10.51232            32.73184            30.16453            27.18051            29.13442            21.09934            26.46665            30.49171            31.41780            29.58597            19.58031             9.79390            19.61041            12.74058            32.32305            11.51755            30.19233            28.91503            17.83358            25.62564            34.73278            36.05600            23.33803            21.93811            34.85975            31.39219            11.87829            25.91026            33.12916            23.62427            11.80188            28.66560            16.16667            26.11219            24.47163            35.75103            34.47742            35.44743            30.32329            16.34907            22.64514            35.62175            29.69343            20.79444            18.66532            24.04971            24.40918            21.26695            21.49675            30.72702            29.56345            19.53131            17.88892            31.33144            35.15358            33.93151            13.98783            18.30331            24.15237            13.24726            18.67824            34.62452            31.37260            20.09671            28.01138            20.98249            34.11487            17.74301            33.31938            33.73893            21.54328             8.71576            13.90989            22.78443            10.52452            26.11711            26.96655            36.33862            20.46130            27.55754            11.59854            33.82045            14.24945            15.58582            29.78768            11.81965            36.37237            25.44786            14.73803            33.65943            22.47845            19.36811            17.58813            16.12246            23.64212            10.45904            22.06150            15.06387            20.00370            20.84432            10.98166            25.90703            23.44777            32.85177             9.43498            34.37788            11.85214            23.82226            26.92439            34.70988            27.34995            25.34535            21.88327            14.73126            24.55327            22.93251            29.39854            14.09000            24.11053             8.60527            23.71459            35.37576            23.77792            23.30172            29.68294            35.76008            15.64203            36.55575            29.16402            12.97791            32.89585            19.94030            25.32096            20.50762            24.22809            11.56787            24.75550            14.01012            36.81014            29.06764            34.18555            10.12466            36.11723            13.24930            24.69431            18.36826            32.95746             9.29306            13.53072            23.70203            33.42644            33.24224             8.41832            24.12427             8.81178            22.87043            29.26601            29.61581            11.96567            18.60907            28.41253            34.22434            13.39154            33.38923            20.29126            13.93432            32.05618            28.60623            33.66650            27.51378            19.76299            29.22167            32.78046            13.20057            20.30002            36.94830            30.59664            29.39842            24.57256            11.78482            32.15148            24.81096            23.60760            13.16140            19.31634             8.75661            34.52361            29.12840            24.14400            24.21862            14.58693            32.84783            18.80868            17.09784            19.22100            10.41504            28.74967             9.73870            12.32396            16.60785            22.81411            11.28960            36.03360            21.02660            14.23821            15.36502            16.98259  