# vtk DataFile Version 3.0
Output from R3t
ASCII
DATASET UNSTRUCTURED_GRID
POINTS       8652 double
      0.50000000E-01     -0.50000000E-02      0.48500000E+00
      0.10000000E+00     -0.50000000E-02      0.48500000E+00
      0.15000000E+00     -0.50000000E-02      0.48500000E+00
      0.20000000E+00     -0.50000000E-02      0.48500000E+00
      0.25000000E+00     -0.50000000E-02      0.48500000E+00
      0.30000000E+00     -0.50000000E-02      0.48500000E+00
      0.35000000E+00     -0.50000000E-02      0.48500000E+00
      0.40000000E+00     -0.50000000E-02      0.48500000E+00
      0.50000000E-01      0.00000000E+00      0.42500000E+00
      0.10000000E+00      0.00000000E+00      0.42500000E+00
      0.15000000E+00      0.00000000E+00      0.42500000E+00
      0.20000000E+00      0.00000000E+00      0.42500000E+00
      0.25000000E+00      0.00000000E+00      0.42500000E+00
      0.30000000E+00      0.00000000E+00      0.42500000E+00
      0.35000000E+00      0.00000000E+00      0.42500000E+00
      0.40000000E+00      0.00000000E+00      0.42500000E+00
      0.50000000E-01      0.00000000E+00      0.37500000E+00
      0.10000000E+00      0.00000000E+00      0.37500000E+00
      0.15000000E+00      0.00000000E+00      0.37500000E+00
      0.20000000E+00      0.00000000E+00      0.37500000E+00
      0.25000000E+00      0.00000000E+00      0.37500000E+00
      0.30000000E+00      0.00000000E+00      0.37500000E+00
      0.35000000E+00      0.00000000E+00      0.37500000E+00
      0.40000000E+00      0.00000000E+00      0.37500000E+00
      0.50000000E-01      0.00000000E+00      0.32500000E+00
      0.10000000E+00      0.00000000E+00      0.32500000E+00
      0.15000000E+00      0.00000000E+00      0.32500000E+00
      0.20000000E+00      0.00000000E+00      0.32500000E+00
      0.25000000E+00      0.00000000E+00      0.32500000E+00
      0.30000000E+00      0.00000000E+00      0.32500000E+00
      0.35000000E+00      0.00000000E+00      0.32500000E+00
      0.40000000E+00      0.00000000E+00      0.32500000E+00
      0.50000000E-01      0.00000000E+00      0.27500000E+00
      0.10000000E+00      0.00000000E+00      0.27500000E+00
      0.15000000E+00      0.00000000E+00      0.27500000E+00
      0.20000000E+00      0.00000000E+00      0.27500000E+00
      0.25000000E+00      0.00000000E+00      0.27500000E+00
      0.30000000E+00      0.00000000E+00      0.27500000E+00
      0.35000000E+00      0.00000000E+00      0.27500000E+00
      0.40000000E+00      0.00000000E+00      0.27500000E+00
      0.50000000E-01      0.00000000E+00      0.22500000E+00
      0.10000000E+00      0.00000000E+00      0.22500000E+00
      0.15000000E+00      0.00000000E+00      0.22500000E+00
      0.20000000E+00      0.00000000E+00      0.22500000E+00
      0.25000000E+00      0.00000000E+00      0.22500000E+00
      0.30000000E+00      0.00000000E+00      0.22500000E+00
      0.35000000E+00      0.00000000E+00      0.22500000E+00
      0.40000000E+00      0.00000000E+00      0.22500000E+00
      0.50000000E-01      0.00000000E+00      0.17500000E+00
      0.10000000E+00      0.00000000E+00      0.17500000E+00
      0.15000000E+00      0.00000000E+00      0.17500000E+00
      0.20000000E+00      0.00000000E+00      0.17500000E+00
      0.50000000E-01      0.00000000E+00      0.12500000E+00
      0.10000000E+00      0.00000000E+00      0.12500000E+00
      0.15000000E+00      0.00000000E+00      0.12500000E+00
      0.20000000E+00      0.00000000E+00      0.12500000E+00
      0.25000000E+00      0.00000000E+00      0.12500000E+00
      0.30000000E+00      0.00000000E+00      0.12500000E+00
      0.35000000E+00      0.00000000E+00      0.12500000E+00
      0.40000000E+00      0.00000000E+00      0.12500000E+00
      0.50000000E-01      0.00000000E+00      0.75000000E-01
      0.10000000E+00      0.00000000E+00      0.75000000E-01
      0.15000000E+00      0.00000000E+00      0.75000000E-01
      0.20000000E+00      0.00000000E+00      0.75000000E-01
      0.25000000E+00      0.00000000E+00      0.75000000E-01
      0.30000000E+00      0.00000000E+00      0.75000000E-01
      0.35000000E+00      0.00000000E+00      0.75000000E-01
      0.40000000E+00      0.00000000E+00      0.75000000E-01
      0.00000000E+00      0.00000000E+00      0.00000000E+00
      0.45000000E+00      0.00000000E+00      0.00000000E+00
      0.00000000E+00      0.00000000E+00      0.50000000E+00
      0.45000000E+00      0.00000000E+00      0.50000000E+00
      0.00000000E+00     -0.30000000E-01      0.00000000E+00
      0.45000000E+00     -0.30000000E-01      0.00000000E+00
      0.00000000E+00     -0.30000000E-01      0.50000000E+00
      0.45000000E+00     -0.30000000E-01      0.50000000E+00
      0.00000000E+00     -0.30000000E-01      0.10000000E-01
      0.00000000E+00     -0.30000000E-01      0.20000000E-01
      0.00000000E+00     -0.30000000E-01      0.30000000E-01
      0.00000000E+00     -0.30000000E-01      0.40000000E-01
      0.00000000E+00     -0.30000000E-01      0.50000000E-01
      0.00000000E+00     -0.30000000E-01      0.60000000E-01
      0.00000000E+00     -0.30000000E-01      0.70000000E-01
      0.00000000E+00     -0.30000000E-01      0.80000000E-01
      0.00000000E+00     -0.30000000E-01      0.90000000E-01
      0.00000000E+00     -0.30000000E-01      0.10000000E+00
      0.00000000E+00     -0.30000000E-01      0.11000000E+00
      0.00000000E+00     -0.30000000E-01      0.12000000E+00
      0.00000000E+00     -0.30000000E-01      0.13000000E+00
      0.00000000E+00     -0.30000000E-01      0.14000000E+00
      0.00000000E+00     -0.30000000E-01      0.15000000E+00
      0.00000000E+00     -0.30000000E-01      0.16000000E+00
      0.00000000E+00     -0.30000000E-01      0.17000000E+00
      0.00000000E+00     -0.30000000E-01      0.18000000E+00
      0.00000000E+00     -0.30000000E-01      0.19000000E+00
      0.00000000E+00     -0.30000000E-01      0.20000000E+00
      0.00000000E+00     -0.30000000E-01      0.21000000E+00
      0.00000000E+00     -0.30000000E-01      0.22000000E+00
      0.00000000E+00     -0.30000000E-01      0.23000000E+00
      0.00000000E+00     -0.30000000E-01      0.24000000E+00
      0.00000000E+00     -0.30000000E-01      0.25000000E+00
      0.00000000E+00     -0.30000000E-01      0.26000000E+00
      0.00000000E+00     -0.30000000E-01      0.27000000E+00
      0.00000000E+00     -0.30000000E-01      0.28000000E+00
      0.00000000E+00     -0.30000000E-01      0.29000000E+00
      0.00000000E+00     -0.30000000E-01      0.30000000E+00
      0.00000000E+00     -0.30000000E-01      0.31000000E+00
      0.00000000E+00     -0.30000000E-01      0.32000000E+00
      0.00000000E+00     -0.30000000E-01      0.33000000E+00
      0.00000000E+00     -0.30000000E-01      0.34000000E+00
      0.00000000E+00     -0.30000000E-01      0.35000000E+00
      0.00000000E+00     -0.30000000E-01      0.36000000E+00
      0.00000000E+00     -0.30000000E-01      0.37000000E+00
      0.00000000E+00     -0.30000000E-01      0.38000000E+00
      0.00000000E+00     -0.30000000E-01      0.39000000E+00
      0.00000000E+00     -0.30000000E-01      0.40000000E+00
      0.00000000E+00     -0.30000000E-01      0.41000000E+00
      0.00000000E+00     -0.30000000E-01      0.42000000E+00
      0.00000000E+00     -0.30000000E-01      0.43000000E+00
      0.00000000E+00     -0.30000000E-01      0.44000000E+00
      0.00000000E+00     -0.30000000E-01      0.45000000E+00
      0.00000000E+00     -0.30000000E-01      0.46000000E+00
      0.00000000E+00     -0.30000000E-01      0.47000000E+00
      0.00000000E+00     -0.30000000E-01      0.48000000E+00
      0.00000000E+00     -0.30000000E-01      0.49000000E+00
      0.10000000E-01     -0.30000000E-01      0.50000000E+00
      0.20000000E-01     -0.30000000E-01      0.50000000E+00
      0.30000000E-01     -0.30000000E-01      0.50000000E+00
      0.40000000E-01     -0.30000000E-01      0.50000000E+00
      0.50000000E-01     -0.30000000E-01      0.50000000E+00
      0.60000000E-01     -0.30000000E-01      0.50000000E+00
      0.70000000E-01     -0.30000000E-01      0.50000000E+00
      0.80000000E-01     -0.30000000E-01      0.50000000E+00
      0.90000000E-01     -0.30000000E-01      0.50000000E+00
      0.10000000E+00     -0.30000000E-01      0.50000000E+00
      0.11000000E+00     -0.30000000E-01      0.50000000E+00
      0.12000000E+00     -0.30000000E-01      0.50000000E+00
      0.13000000E+00     -0.30000000E-01      0.50000000E+00
      0.14000000E+00     -0.30000000E-01      0.50000000E+00
      0.15000000E+00     -0.30000000E-01      0.50000000E+00
      0.16000000E+00     -0.30000000E-01      0.50000000E+00
      0.17000000E+00     -0.30000000E-01      0.50000000E+00
      0.18000000E+00     -0.30000000E-01      0.50000000E+00
      0.19000000E+00     -0.30000000E-01      0.50000000E+00
      0.20000000E+00     -0.30000000E-01      0.50000000E+00
      0.21000000E+00     -0.30000000E-01      0.50000000E+00
      0.22000000E+00     -0.30000000E-01      0.50000000E+00
      0.23000000E+00     -0.30000000E-01      0.50000000E+00
      0.24000000E+00     -0.30000000E-01      0.50000000E+00
      0.25000000E+00     -0.30000000E-01      0.50000000E+00
      0.26000000E+00     -0.30000000E-01      0.50000000E+00
      0.27000000E+00     -0.30000000E-01      0.50000000E+00
      0.28000000E+00     -0.30000000E-01      0.50000000E+00
      0.29000000E+00     -0.30000000E-01      0.50000000E+00
      0.30000000E+00     -0.30000000E-01      0.50000000E+00
      0.31000000E+00     -0.30000000E-01      0.50000000E+00
      0.32000000E+00     -0.30000000E-01      0.50000000E+00
      0.33000000E+00     -0.30000000E-01      0.50000000E+00
      0.34000000E+00     -0.30000000E-01      0.50000000E+00
      0.35000000E+00     -0.30000000E-01      0.50000000E+00
      0.36000000E+00     -0.30000000E-01      0.50000000E+00
      0.37000000E+00     -0.30000000E-01      0.50000000E+00
[...]
POINT_DATA      8652
CELL_DATA     32557
SCALARS Resistivity(ohm.m) double 1
LOOKUP_TABLE default
            24.24799            45.47188            24.04546            51.15393            27.32046            33.80839            32.16838            31.20870            34.67834            31.56210            29.82440            24.51028            33.84411            30.28563            19.50797            24.40490            28.15934            51.70996            33.35880            29.45705            31.03703            25.48106            23.78622            34.76653            21.56028            26.35011            33.87175            39.01695            43.00864            24.31747            37.21085            25.75958            25.34800            30.35187            35.27046            31.50847            19.98178            52.80753            22.55082            30.85804            29.78427            29.40568            31.65300            24.64955            29.14140            31.43143            43.67701            39.19009            23.28052            45.09974            24.05979            54.57659            38.95639            35.37168            30.12673            27.81545            38.70066            31.20439            53.34482            19.21069            45.61539            23.08810            21.81300            25.41173            53.25772            37.70707            33.01092            32.96104            34.04129            41.50624            27.71481            25.19852            21.76934            35.99296            29.67577            26.32368            39.45917            40.25407            29.64741            18.52405            31.56221            34.03385            32.97129            35.78669            34.80552            29.15461            32.24950            29.62233            35.00273            41.09714            27.02895            34.35289            40.90661            31.77344            30.33739            32.60557            56.82040            28.26764            26.30980            30.14645            30.74172            18.83810            41.78711            36.44108            42.32867            41.49435            24.58621            30.13454            33.93134            23.07262            53.10871            27.65519            42.70842            27.50402            30.56520            34.72565            24.76191            41.74658            25.96990            25.81218            45.98730            23.23952            34.21896            29.97720            40.45846            38.66085            33.66803            29.52617            26.12031            23.96571            29.58831            30.04260            28.97835            37.19679            35.86026            27.92233            35.84021            26.16060            26.45956            23.60638            35.58273            46.40409            31.97563            32.88543            25.94475            47.66844            41.26093            18.35618            32.73573            18.10024            23.53300            26.87424            29.32809            37.76031            30.95443            26.62615            28.91471            29.64757            37.26345            54.95214            18.96082            44.19820            18.45291            30.26440            25.71274            32.98333            32.95845            21.51215            23.79488            25.11431            32.64254            30.09624            35.27752            25.18163            29.59878            28.21712            29.94022            30.53180            41.88544            34.38543            38.42205            44.59746            35.86916            41.62177            47.11751            32.19883            24.83640            41.34428            44.40976            25.02307            25.45797            20.02363            22.12284            24.21843            33.90715            33.02940            31.80125            27.87536            38.87014            29.82921            25.00407            39.77245            27.72986            26.24102            25.30340            37.34307            35.67779            44.10963            31.21969            33.54511            31.67715            26.85602            41.69046            32.08267            32.20963            40.97865            25.11970            40.59939            32.62838            26.59521            35.45035            29.69227            32.62881            44.05930            23.88702            24.27823            57.83572            38.59785            26.48717            36.85277            30.24494            34.51083            27.38248            28.34540            20.63208            24.62879            43.47233            37.97009            37.70133            25.89278            36.54755            29.10430            30.50623            25.40291            22.69345            33.30518            32.18312            42.30362            31.87657            23.68882            33.84446            23.19755            19.95722            22.54947            30.11449            27.70845            39.40606            27.68625            51.33236            25.12716            21.84848            28.49579            18.10731            25.81358            41.51867            25.33657            29.09406            17.96699            17.48247            31.23639            21.52382            32.94510            24.68392            29.80518            20.45118            28.76839            34.65507            27.62874            42.17091            24.54477            32.44844            43.35156            36.75631            29.53181            21.81876            27.10448            23.95319            20.26726            35.51584            38.16259            39.25026            26.48812            27.17729            43.10992            29.72093            29.99777            31.41396            35.53213            26.15580            29.33692            31.75014            23.70855            49.85155            34.87680            27.40546            20.39454            19.86215            17.26286            39.13612            38.86175            24.55446            56.81339            19.16357            31.28010            47.72978            37.26250            24.93322            32.98246            41.65851            39.99044            33.57874            34.41274            41.47079            23.85874            31.45731            29.02648            31.92025            34.44808            20.64379            32.04132            24.48686            39.38914            24.25505            34.18047            50.47920            37.53931            23.89145            28.20322            43.39836            34.05134            26.11226            28.71761            40.26979            31.40268            35.44280            36.70613            47.25561            29.02448            33.03802            38.30677            29.96026            39.31569            33.90619            21.02751            30.78048            34.76008            28.74069            27.18095            20.65119            20.22473            32.49759            26.93895            53.73575            24.27145            32.46437            41.89486            26.52842            42.96075            40.68780            23.52480            30.14264            24.26636            25.66655            29.06944            33.42197            28.97102            35.07228            25.03433            32.38669            29.42273            23.72620            28.87692            49.79151            21.29730            23.75331            26.07547            28.09687            29.15721            29.86454            41.21605            36.02119            37.43267            29.54288            40.24174            25.79438            27.00039            33.53920            26.55691            27.14311            36.26293            21.95980            22.37601            32.45991            30.08745            29.55999            57.41464            31.18391            36.93134            44.29586            34.79138            29.05040            26.40630            27.63427            30.34169            18.78029            24.98216            25.02908            26.63857            24.46076            43.09037            27.39076            51.95467            26.66092            29.47821            45.50956            33.41126            28.93305            22.63319            31.32740            32.97979            32.51615            42.21312            39.42459            32.05746            31.35717            29.47240            44.78792            34.63116            28.21588            25.40243            28.53527            22.30963            40.60885            32.88636            35.31711            36.06499            27.88705            36.59877            32.40656            35.41807            43.63294            41.44747            37.77727            37.21271            31.14053            20.74066            51.13495            34.77527            30.96323            25.27634            38.27423            30.50918            35.50493            37.98133            38.38031            33.43420            30.97578            35.32935            30.36966            30.30411            24.58868            30.28575            28.43193            24.73955            24.16635            26.73791            32.63531            23.58446            30.67696            31.26935            33.68144            29.78697            38.22889            26.27902            21.57353            24.41545            36.58024            36.23004            27.79525            26.71342            33.26686            32.41835            31.56739            39.29902            22.53833            35.21003            35.23870            36.13873            35.46364            37.19655            31.71962            23.20846            57.32204            30.92612            33.12735            40.63641            32.87390            32.28031            37.60887            29.85840            30.83633            33.12216            23.67948            27.53290            46.71927            25.62503            27.73397            29.56683            38.32085            29.27892            25.89118            24.66524            32.14285            29.64704            34.22102            38.68363            21.22585            39.22534            30.92822            33.71375            31.48753            29.78120            27.28586            31.98840            36.75417            24.53815            39.73604            31.77341            38.53617            30.45948            33.45374            37.74046            30.07483            35.25539            31.11321            30.74563            26.77142            18.28874            30.88405            23.94389            29.74369            35.41481            37.31345            37.29753            27.70942            22.79544            32.26628            30.64828            27.25185            27.83510            29.14629            23.38446            36.57753            27.70531            25.39932            47.76546            19.91231            36.62777            25.28280            29.43288            26.41983            31.28208            38.47765            19.04045            18.21008            31.02311            23.38934            35.76668            27.44806            35.26343            23.75538            31.42310            18.32526            42.20393            20.58300            32.69869            21.04965            30.44550            30.14518            40.89816            37.61404            26.80534            36.04172            30.05178            24.95659            29.97538            38.92864            30.91142            23.92940            30.01568            24.64351            25.83540            36.87162            23.18866            29.67252            32.54226            26.96815            31.45162            30.11216            23.27034            40.56964            26.21288            25.82432            30.73662            37.09100            41.72049            38.25590            34.59021            31.16588            31.99096            30.13190            41.12577            24.36448            30.49428            37.57984            28.42625            37.52239            27.82989            33.37918            40.23457            30.68741            49.30639            37.26720            35.56014            34.90640            27.78054            32.52392            30.70564            37.81842            28.60822            42.16598            35.80157            31.36265            23.36579            30.96721            22.35907            22.30078            33.98168            40.67699            35.70732            32.89189            42.54719            17.94112            29.44646            28.95371            34.79174            27.00007            25.37948            27.56441            31.10845            23.45886            19.83216            34.30721            34.38968            27.40316            35.61174            34.61059            33.25755            24.84774            33.03309            32.85443            26.97843            32.95585            56.90035            39.48269            21.18438            23.94109            26.90356            30.68111            26.14063            36.60606            31.35830            34.14987            67.79653            22.96422            32.94311            34.36116            26.23478            33.27175            32.97321            36.90056            34.73895            34.80352            26.57118            27.23138            32.80394            32.01995            31.13939            33.98626            36.89765            35.15097            41.17234            48.84117            37.04801            33.58619            27.62678            21.29017            26.93727            34.70111            20.93540            29.20702            20.08223            22.17135            33.65066            41.46716            39.60342            27.33069            30.76143            34.00619            29.03050            33.47257            22.71789            49.97549            35.52935            23.89048            26.72612            27.96287            30.70546            35.29875            30.30027            24.63443            42.68405            23.01528            30.26495            22.54300            29.00314            26.14162            27.15495            34.26770            43.51421            36.08349            30.87261            34.39235            33.41770            21.77301            41.79037            19.42603            29.97120            31.42305            19.75475            31.77139            26.38101            25.07379            31.12486            29.14475            20.69973            24.34611            28.16704            25.83756            22.06586            29.10816            33.31114            29.30434            44.34904            47.42853            39.82495            28.13383            17.53524            39.04831            28.91518            26.77685            29.08671            38.41402            36.67526            35.08904            40.23019            35.77826            29.18341            41.32855            30.34633            24.78269            42.75631            34.99564            44.03206            47.34994            34.94573            22.34176            51.62630            28.09805            34.71494            30.60215            32.40959            43.13283            37.14652            24.85899            26.33635            46.39380            31.80229            33.30062            34.51641            26.53046            40.49080            23.90389            34.75246            26.91218            41.02619            29.75379            22.40013            26.46578            25.58642            38.05482            29.62007            18.05299            20.16358            35.46840            26.11382            33.92356            30.86281            35.65755            38.70070            25.74382            25.05481            26.90707            40.56984            38.57623            23.54810            21.55368            25.28657            28.01038            27.70072            22.21945            19.50542            25.47316            27.22605            33.39031            21.14404            34.32628            26.78865            53.06697            36.15692            25.49191            24.42413            43.71275            29.74672            28.97283            28.09071            24.08895            31.21774            29.51159            23.19986            39.03476            29.66252            57.03153            32.55214            29.32293            31.86767            29.83878            34.75696            26.99662            27.91864            18.12585            45.53617            32.75439            28.35183            20.12777            21.27364            32.59955            25.66822            35.15991            53.54968            36.36011            20.46453            22.33041            33.32585            26.89899            30.39988            30.39356            30.13801            36.70826            19.85360            19.63444            29.63005            41.01613            29.82979            33.32593            30.72140            28.77854            29.87930            29.37430            40.26210            29.46445            35.71669            20.08888            25.60791            27.03234            26.06193            37.46458            24.16553            34.36097            26.36962            31.10005            55.93288            27.53501            31.63465            32.28735            42.09647            30.15693            38.35120            29.91590            30.83296            17.82076            20.87520            28.25115            28.79677            36.29613            20.74758            20.77989            29.68773            35.19579            20.60799            24.08670            27.24828            25.12761            30.23050            24.36773            38.68270            25.68248            48.24174            34.12876            26.87843            35.58985            29.63784            25.65783            25.74908            33.41603            31.48018            28.47392            29.36741            16.93933            41.74719            38.10933            29.16493            30.57811            30.48295            33.66599            21.38666            28.30536            39.80369            32.41067            25.59488            30.06429            20.90578            30.08154            24.48774            27.28019            33.95642            56.98746            33.95097            27.05534            27.08782            31.50661            20.44020            34.33017            38.23161            44.74046            23.43461            40.83583            25.60425            27.72487            30.42290            37.44242            29.19943            35.77015            45.37608            27.54220            54.22812            17.32431            20.73318            32.14445            40.28112            30.37340            25.20678            24.32902            24.94894            22.74131            32.95553            31.16639            24.61608            31.59715            25.16349            32.55893            30.34023            33.18435            29.85611            24.51262  