# vtk DataFile Version 3.0
Output from R3t
ASCII
DATASET UNSTRUCTURED_GRID
POINTS       8652 double
      0.50000000E-01     -0.50000000E-02      0.48500000E+00
      0.10000000E+00     -0.50000000E-02      0.48500000E+00
      0.15000000E+00     -0.50000000E-02      0.48500000E+00
      0.20000000E+00     -0.50000000E-02      0.48500000E+00
      0.25000000E+00     -0.50000000E-02      0.48500000E+00
      0.30000000E+00     -0.50000000E-02      0.48500000E+00
      0.35000000E+00     -0.50000000E-02      0.48500000E+00
      0.40000000E+00     -0.50000000E-02      0.48500000E+00
      0.50000000E-01      0.00000000E+00      0.42500000E+00
      0.10000000E+00      0.00000000E+00      0.42500000E+00
      0.15000000E+00      0.00000000E+00      0.42500000E+00
      0.20000000E+00      0.00000000E+00      0.42500000E+00
      0.25000000E+00      0.00000000E+00      0.42500000E+00
      0.30000000E+00      0.00000000E+00      0.42500000E+00
      0.35000000E+00      0.00000000E+00      0.42500000E+00
      0.40000000E+00      0.00000000E+00      0.42500000E+00
      0.50000000E-01      0.00000000E+00      0.37500000E+00
      0.10000000E+00      0.00000000E+00      0.37500000E+00
      0.15000000E+00      0.00000000E+00      0.37500000E+00
      0.20000000E+00      0.00000000E+00      0.37500000E+00
      0.25000000E+00      0.00000000E+00      0.37500000E+00
      0.30000000E+00      0.00000000E+00      0.37500000E+00
      0.35000000E+00      0.00000000E+00      0.37500000E+00
      0.40000000E+00      0.00000000E+00      0.37500000E+00
      0.50000000E-01      0.00000000E+00      0.32500000E+00
      0.10000000E+00      0.00000000E+00      0.32500000E+00
      0.15000000E+00      0.00000000E+00      0.32500000E+00
      0.20000000E+00      0.00000000E+00      0.32500000E+00
      0.25000000E+00      0.00000000E+00      0.32500000E+00
      0.30000000E+00      0.00000000E+00      0.32500000E+00
      0.35000000E+00      0.00000000E+00      0.32500000E+00
      0.40000000E+00      0.00000000E+00      0.32500000E+00
      0.50000000E-01      0.00000000E+00      0.27500000E+00
      0.10000000E+00      0.00000000E+00      0.27500000E+00
      0.15000000E+00      0.00000000E+00      0.27500000E+00
      0.20000000E+00      0.00000000E+00      0.27500000E+00
      0.25000000E+00      0.00000000E+00      0.27500000E+00
      0.30000000E+00      0.00000000E+00      0.27500000E+00
      0.35000000E+00      0.00000000E+00      0.27500000E+00
      0.40000000E+00      0.00000000E+00      0.27500000E+00
      0.50000000E-01      0.00000000E+00      0.22500000E+00
      0.10000000E+00      0.00000000E+00      0.22500000E+00
      0.15000000E+00      0.00000000E+00      0.22500000E+00
      0.20000000E+00      0.00000000E+00      0.22500000E+00
      0.25000000E+00      0.00000000E+00      0.22500000E+00
      0.30000000E+00      0.00000000E+00      0.22500000E+00
      0.35000000E+00      0.00000000E+00      0.22500000E+00
      0.40000000E+00      0.00000000E+00      0.22500000E+00
      0.50000000E-01      0.00000000E+00      0.17500000E+00
      0.10000000E+00      0.00000000E+00      0.17500000E+00
      0.15000000E+00      0.00000000E+00      0.17500000E+00
      0.20000000E+00      0.00000000E+00      0.17500000E+00
      0.50000000E-01      0.00000000E+00      0.12500000E+00
      0.10000000E+00      0.00000000E+00      0.12500000E+00
      0.15000000E+00      0.00000000E+00      0.12500000E+00
      0.20000000E+00      0.00000000E+00      0.12500000E+00
      0.25000000E+00      0.00000000E+00      0.12500000E+00
      0.30000000E+00      0.00000000E+00      0.12500000E+00
      0.35000000E+00      0.00000000E+00      0.12500000E+00
      0.40000000E+00      0.00000000E+00      0.12500000E+00
      0.50000000E-01      0.00000000E+00      0.75000000E-01
      0.10000000E+00      0.00000000E+00      0.75000000E-01
      0.15000000E+00      0.00000000E+00      0.75000000E-01
      0.20000000E+00      0.00000000E+00      0.75000000E-01
      0.25000000E+00      0.00000000E+00      0.75000000E-01
      0.30000000E+00      0.00000000E+00      0.75000000E-01
      0.35000000E+00      0.00000000E+00      0.75000000E-01
      0.40000000E+00      0.00000000E+00      0.75000000E-01
      0.00000000E+00      0.00000000E+00      0.00000000E+00
      0.45000000E+00      0.00000000E+00      0.00000000E+00
      0.00000000E+00      0.00000000E+00      0.50000000E+00
      0.45000000E+00      0.00000000E+00      0.50000000E+00
      0.00000000E+00     -0.30000000E-01      0.00000000E+00
      0.45000000E+00     -0.30000000E-01      0.00000000E+00
      0.00000000E+00     -0.30000000E-01      0.50000000E+00
      0.45000000E+00     -0.30000000E-01      0.50000000E+00
      0.00000000E+00     -0.30000000E-01      0.10000000E-01
      0.00000000E+00     -0.30000000E-01      0.20000000E-01
      0.00000000E+00     -0.30000000E-01      0.30000000E-01
      0.00000000E+00     -0.30000000E-01      0.40000000E-01
      0.00000000E+00     -0.30000000E-01      0.50000000E-01
      0.00000000E+00     -0.30000000E-01      0.60000000E-01
      0.00000000E+00     -0.30000000E-01      0.70000000E-01
      0.00000000E+00     -0.30000000E-01      0.80000000E-01
      0.00000000E+00     -0.30000000E-01      0.90000000E-01
      0.00000000E+00     -0.30000000E-01      0.10000000E+00
      0.00000000E+00     -0.30000000E-01      0.11000000E+00
      0.00000000E+00     -0.30000000E-01      0.12000000E+00
      0.00000000E+00     -0.30000000E-01      0.13000000E+00
      0.00000000E+00     -0.30000000E-01      0.14000000E+00
      0.00000000E+00     -0.30000000E-01      0.15000000E+00
      0.00000000E+00     -0.30000000E-01      0.16000000E+00
      0.00000000E+00     -0.30000000E-01      0.17000000E+00
      0.00000000E+00     -0.30000000E-01      0.18000000E+00
      0.00000000E+00     -0.30000000E-01      0.19000000E+00
      0.00000000E+00     -0.30000000E-01      0.20000000E+00
      0.00000000E+00     -0.30000000E-01      0.21000000E+00
      0.00000000E+00     -0.30000000E-01      0.22000000E+00
      0.00000000E+00     -0.30000000E-01      0.23000000E+00
      0.00000000E+00     -0.30000000E-01      0.24000000E+00
      0.00000000E+00     -0.30000000E-01      0.25000000E+00
      0.00000000E+00     -0.30000000E-01      0.26000000E+00
      0.00000000E+00     -0.30000000E-01      0.27000000E+00
      0.00000000E+00     -0.30000000E-01      0.28000000E+00
      0.00000000E+00     -0.30000000E-01      0.29000000E+00
      0.00000000E+00     -0.30000000E-01      0.30000000E+00
      0.00000000E+00     -0.30000000E-01      0.31000000E+00
      0.00000000E+00     -0.30000000E-01      0.32000000E+00
      0.00000000E+00     -0.30000000E-01      0.33000000E+00
      0.00000000E+00     -0.30000000E-01      0.34000000E+00
      0.00000000E+00     -0.30000000E-01      0.35000000E+00
      0.00000000E+00     -0.30000000E-01      0.36000000E+00
      0.00000000E+00     -0.30000000E-01      0.37000000E+00
      0.00000000E+00     -0.30000000E-01      0.38000000E+00
      0.00000000E+00     -0.30000000E-01      0.39000000E+00
      0.00000000E+00     -0.30000000E-01      0.40000000E+00
      0.00000000E+00     -0.30000000E-01      0.41000000E+00
      0.00000000E+00     -0.30000000E-01      0.42000000E+00
      0.00000000E+00     -0.30000000E-01      0.43000000E+00
      0.00000000E+00     -0.30000000E-01      0.44000000E+00
      0.00000000E+00     -0.30000000E-01      0.45000000E+00
      0.00000000E+00     -0.30000000E-01      0.46000000E+00
      0.00000000E+00     -0.30000000E-01      0.47000000E+00
      0.00000000E+00     -0.30000000E-01      0.48000000E+00
      0.00000000E+00     -0.30000000E-01      0.49000000E+00
      0.10000000E-01     -0.30000000E-01      0.50000000E+00
      0.20000000E-01     -0.30000000E-01      0.50000000E+00
      0.30000000E-01     -0.30000000E-01      0.50000000E+00
      0.40000000E-01     -0.30000000E-01      0.50000000E+00
      0.50000000E-01     -0.30000000E-01      0.50000000E+00
      0.60000000E-01     -0.30000000E-01      0.50000000E+00
      0.70000000E-01     -0.30000000E-01      0.50000000E+00
      0.80000000E-01     -0.30000000E-01      0.50000000E+00
      0.90000000E-01     -0.30000000E-01      0.50000000E+00
      0.10000000E+00     -0.30000000E-01      0.50000000E+00
      0.11000000E+00     -0.30000000E-01      0.50000000E+00
      0.12000000E+00     -0.30000000E-01      0.50000000E+00
      0.13000000E+00     -0.30000000E-01      0.50000000E+00
      0.14000000E+00     -0.30000000E-01      0.50000000E+00
      0.15000000E+00     -0.30000000E-01      0.50000000E+00
      0.16000000E+00     -0.30000000E-01      0.50000000E+00
      0.17000000E+00     -0.30000000E-01      0.50000000E+00
      0.18000000E+00     -0.30000000E-01      0.50000000E+00
      0.19000000E+00     -0.30000000E-01      0.50000000E+00
      0.20000000E+00     -0.30000000E-01      0.50000000E+00
      0.21000000E+00     -0.30000000E-01      0.50000000E+00
      0.22000000E+00     -0.30000000E-01      0.50000000E+00
      0.23000000E+00     -0.30000000E-01      0.50000000E+00
      0.24000000E+00     -0.30000000E-01      0.50000000E+00
      0.25000000E+00     -0.30000000E-01      0.50000000E+00
      0.26000000E+00     -0.30000000E-01      0.50000000E+00
      0.27000000E+00     -0.30000000E-01      0.50000000E+00
      0.28000000E+00     -0.30000000E-01      0.50000000E+00
      0.29000000E+00     -0.30000000E-01      0.50000000E+00
      0.30000000E+00     -0.30000000E-01      0.50000000E+00
      0.31000000E+00     -0.30000000E-01      0.50000000E+00
      0.32000000E+00     -0.30000000E-01      0.50000000E+00
      0.33000000E+00     -0.30000000E-01      0.50000000E+00
      0.34000000E+00     -0.30000000E-01      0.50000000E+00
      0.35000000E+00     -0.30000000E-01      0.50000000E+00
      0.36000000E+00     -0.30000000E-01      0.50000000E+00
      0.37000000E+00     -0.30000000E-01      0.50000000E+00
[...]
POINT_DATA      8652
CELL_DATA     32557
SCALARS Resistivity(ohm.m) double 1
LOOKUP_TABLE default
            23.53526            22.75499            21.48896            25.61655            23.55951            31.88792            32.36219            29.08793            25.81945            34.02642            33.00869            38.29857            35.06844            24.65207            22.35739            21.38695            16.60804            36.23763            25.62595            34.53108            33.70136            23.12753            15.40146            33.43144            22.01760            22.99733            28.46131            27.58093            36.13371            16.19795            25.94604            26.67430            22.70055            28.90935            23.26342            27.48946            19.71289            37.24913            20.93204            28.70911            23.46050            34.55891            27.51817            23.80313            33.40651            28.51129            24.92323            26.39584            27.88165            35.77441            16.81015            37.57887            33.51749            26.97577            29.78354            23.46669            33.30585            34.30200            36.76715            23.15103            30.79658            16.69156            25.17280            20.77880            32.59188            25.55620            34.76556            27.58566            32.43955            26.51790            24.64697            18.23284            23.65515            30.23265            33.56136            21.67310            32.58505            28.61471            15.77582            17.07043            34.67024            26.15051            27.75028            25.88314            25.78373            22.29294            33.11631            33.49269            25.96317            30.98874            21.76935            32.05832            34.58122            28.38547            34.45746            31.33480            34.96473            29.19234            20.80508            33.45174            33.22054            19.23046            28.42283            26.67965            25.05428            25.22254            24.25720            20.24324            34.82931            18.14110            33.40428            31.10351            25.26391            30.82225            29.66850            25.80292            22.96775            36.02604            21.34009            28.17111            26.25515            24.60672            30.97328            33.30867            27.47656            29.93691            28.79671            31.32884            22.54352            23.87721            34.32699            24.82063            25.22466            23.09095            33.77428            22.74163            25.81949            32.82908            24.51365            23.29894            28.23647            26.10116            34.76499            25.67792            27.69212            34.75391            24.67010            18.38542            23.88378            16.33995            24.37618            16.35154            20.32364            30.62804            28.78673            17.77167            23.01028            33.50947            27.11292            37.00605            22.04483            28.38685            17.29788            33.58632            32.67435            19.77745            33.53540            22.22769            24.69478            19.65809            31.31004            33.66028            27.36176            23.41952            33.52110            23.97154            23.60550            24.36442            24.25543            25.50799            24.77774            28.79178            30.37640            29.87946            30.92233            34.48422            23.64168            23.78965            26.49346            32.56652            22.46658            14.93976            23.99995            26.22723            28.08354            33.76002            24.07137            33.13956            27.29914            27.71938            21.65412            33.37890            29.06942            29.49319            22.54738            27.89971            23.28595            25.42923            27.16177            26.71638            27.51617            25.55044            27.82012            27.48092            22.67115            27.95993            23.75230            28.58712            23.69790            23.18819            26.57105            33.45221            23.43518            32.14166            29.73184            22.90314            37.20467            28.25619            32.03408            29.30240            32.43707            26.21897            21.44242            23.58913            21.80021            26.26392            32.47159            25.88285            30.66104            20.87125            27.85747            34.65239            23.74898            21.85590            25.28016            30.92029            29.27850            28.04594            34.69518            26.58014            25.88052            28.80840            23.04164            20.10075            32.87796            29.90905            28.94702            20.11352            24.79448            32.37519            18.20904            29.10265            21.60426            24.22167            24.73883            26.27169            34.22028            17.96739            19.07732            29.05013            23.05902            19.89275            20.53482            33.57674            22.96401            22.10492            35.85105            22.80717            25.74516            23.50657            32.42048            25.26988            23.64603            28.97027            17.24440            27.96871            24.33424            22.85126            27.52030            30.95135            31.82746            26.06109            24.41568            24.24963            34.23550            32.99136            33.56587            24.10811            23.56020            23.42090            25.21825            24.33932            31.93147            22.73604            17.23740            22.44324            23.20087            20.32352            29.90184            35.14260            16.67654            34.60249            22.16728            28.83769            26.75350            24.38489            22.44334            31.58572            34.18837            29.49760            25.30314            30.54518            26.91622            23.81725            28.49384            33.86634            28.33408            22.73105            25.05424            28.66671            22.40376            25.54497            23.32810            27.94978            37.65744            30.07690            23.04795            22.80821            24.64804            32.33694            21.33365            31.38129            32.64368            33.43490            34.20413            27.44913            30.78236            23.84512            36.06855            23.46573            25.22561            35.13661            26.21016            24.57155            27.58390            30.98480            24.96980            23.99067            22.75693            18.74263            34.81219            29.23404            31.78104            27.19590            32.46460            30.03927            32.02426            27.57512            31.64319            22.64959            33.53997            26.49372            24.59895            34.21344            26.45624            23.50947            28.38814            24.33032            34.97739            22.69127            23.78140            30.67621            31.26378            16.89181            25.45301            20.98930            23.59711            27.78458            27.90032            28.39078            33.40198            34.61547            32.88681            32.67768            24.47507            22.41472            33.82178            32.98136            22.24972            27.26166            23.96773            23.95282            29.47328            30.68945            33.38056            35.13368            33.69252            28.12540            24.51474            26.14239            24.45949            23.07721            26.70863            28.75117            15.90808            27.84257            24.73475            25.68197            25.51475            29.59560            21.27006            31.35390            24.26884            33.35611            31.43055            31.08403            26.84646            22.79410            28.89877            35.36951            26.74500            27.32135            28.94783            27.43153            33.06192            30.67410            33.61215            34.17176            23.17543            31.71059            31.37992            26.09671            33.93599            36.00854            26.93068            31.32891            22.12821            28.34619            26.06950            35.48811            30.26948            35.27925            35.27736            27.90234            33.88350            23.55191            23.69836            33.35802            34.03262            20.57043            26.04326            24.89740            25.27021            32.95402            29.29929            28.75100            31.00961            26.00154            28.16945            33.37010            20.96732            27.23714            31.59096            25.54981            21.26007            29.10469            25.15704            20.66331            33.82095            28.78628            33.31062            28.88494            27.61540            19.84675            25.60184            23.81694            28.79414            26.79148            26.86187            23.80105            33.32893            26.13498            34.48248            29.26386            16.18582            26.34829            23.10629            33.61945            32.34735            28.49982            24.19257            24.08311            32.41758            28.45833            29.39737            23.81321            36.01414            32.21696            25.50811            33.35297            22.78284            32.76879            21.78768            32.10558            24.72846            32.06741            23.30612            34.32341            28.15147            19.54673            23.95879            21.72823            27.14306            32.72947            33.22372            25.85548            23.58768            33.87926            28.79538            33.94190            27.42901            32.73504            27.32431            30.24065            25.40176            27.06218            26.49366            24.67664            34.69243            33.56284            24.57940            25.53889            24.25115            27.80734            29.04446            24.70570            22.13699            18.97645            28.42830            26.23757            32.80591            28.17983            26.93825            25.48539            22.39490            19.51430            19.97327            33.08791            23.31353            18.23993            33.35077            22.99086            23.18011            29.98887            24.47742            31.66633            23.12366            23.28683            18.87407            29.70671            26.10021            28.48498            28.55101            22.53707            15.52411            28.77383            16.18199            25.75945            27.15067            26.18160            24.43526            25.84510            15.81502            23.99678            21.06873            33.29303            14.67061            27.63659            32.92166            27.07451            28.11222            23.13957            31.45763            28.77957            22.50754            28.86788            22.90379            28.44658            27.09200            28.65723            23.56919            26.72025            27.15836            20.40009            33.41748            23.83739            24.10321            28.48712            33.02450            23.88639            29.68442            16.68514            22.70979            28.73455            31.45207            25.06640            33.32358            25.48991            28.46342            27.23217            33.26350            25.52422            22.88401            28.69158            32.39648            21.66519            25.65169            30.47601            24.13772            33.15746            33.80506            24.31969            31.02220            28.93913            30.78256            26.67645            33.08452            27.54485            27.81058            27.73251            24.54148            26.54948            32.27416            23.47457            26.54047            17.42099            24.01351            32.41214            25.45401            24.93311            35.98869            27.20292            22.11668            34.60068            22.95807            26.41047            23.05151            32.28032            24.11408            28.45569            24.91382            24.24952            25.23948            32.84860            26.40811            27.73800            34.14099            36.26488            26.86074            26.35109            27.30103            17.02768            28.76432            37.34557            27.46641            14.48323            21.06494            32.95649            33.88897            31.81821            31.82169            33.38379            29.99901            27.41651            25.95422            23.67642            32.47758            22.42667            34.61058            36.09237            30.69744            34.44204            23.53150            31.98548            25.90876            33.53198            30.37217            28.80184            27.90549            34.56285            23.68991            27.90245            34.60229            23.71154            25.58021            30.79659            24.29482            23.13805            29.59342            23.24451            33.23744            17.52280            26.04961            34.86851            28.85834            26.50166            33.08231            28.74113            34.84052            22.28747            30.50254            20.90046            24.06067            25.73460            24.51055            22.95284            29.72281            33.08068            28.19794            33.79731            32.32523            35.59718            21.33778            33.64004            24.07354            31.23089            32.72988            26.82518            28.11537            30.84744            26.57044            28.24488            32.99789            24.29516            20.19985            27.28837            16.53588            32.87986            27.91524            17.61087            24.91727            25.00063            22.79775            29.11265            26.86097            21.08061            26.62214            28.95720            25.35534            16.63102            22.24643            33.92165            31.51659            30.46546            36.51566            33.35988            30.52736            19.29617            24.39647            27.33430            22.76563            25.53956            28.44528            34.35241            23.09828            31.85683            24.68771            26.95893            29.51553            28.78035            20.41772            27.71261            32.82792            27.86347            24.81904            27.30715            21.89903            36.93626            24.58652            28.95127            33.54575            28.71180            26.66078            31.21777            25.19174            24.48807            30.92889            28.52258            25.33782            27.54976            21.45371            35.11475            26.01950            25.91125            20.56703            24.75084            27.16235            24.05061            24.93013            16.44856            26.89992            24.47005            17.79721            21.57226            34.59899            25.71401            31.82456            24.46329            32.48066            29.10981            20.42589            20.47732            32.83545            29.47897            25.55757            26.18026            19.99905            24.58668            23.87247            25.90115            23.86902            22.55911            20.73201            23.24388            31.46911            24.24867            25.29323            25.74247            33.75951            27.07332            26.79405            23.99631            25.96916            24.11545            33.31181            19.86585            22.22460            33.52305            29.83008            28.90083            25.12017            32.66149            37.01378            35.75789            32.54906            34.23109            26.04671            24.10240            28.56792            22.29832            18.54304            35.97324            24.48341            24.32401            17.72097            28.36088            34.72546            27.82944            27.67192            33.27033            31.14756            22.11122            17.30660            34.56679            25.80115            34.13874            27.01310            32.37588            29.98091            22.81557            21.83643            33.46587            29.41389            32.70891            28.65901            28.47354            23.41263            33.44686            23.82196            28.21277            19.96768            28.97362            23.03236            23.83775            22.84599            32.72557            32.49934            21.50232            26.31507            28.68622            24.34614            31.54243            21.13795            29.14088            35.36327            28.20009            33.63558            33.25506            33.12183            28.71875            19.30801            21.51109            24.51082            24.29063            28.90398            24.75357            17.37547            33.46145            24.23953            20.75646            20.60843            22.58856            17.95894            33.36588            24.49492            34.14136            30.55877            36.58718            33.31295            29.14783            34.01031            31.33700            22.67776            27.82573            26.08273            32.34920            24.89951            32.50126            29.81307            27.50373            33.98933            33.39830            33.59654            33.75276            26.37263            17.27854            27.98652            29.25821            25.50711            32.39412            34.35673            14.73180            33.55398            26.99613            23.07644            26.52393            37.12349            25.37685            26.58226            32.11300            28.50521            16.95805            34.83837            29.25082            32.51857            21.41483            22.63836            19.00596            29.33179            33.63662            30.49149            26.17281            28.04287            25.58040            26.61626            35.85336            22.26630            15.05624            34.66859            29.86150            33.28950            26.77634            27.21870            20.93967            26.18255            34.07836            28.46479            27.15393            34.33722            26.11247            34.89867            25.26776            26.03945            33.05375            23.49251  