# vtk DataFile Version 3.0
Output from R3t
ASCII
DATASET UNSTRUCTURED_GRID
POINTS       8652 double
      0.50000000E-01     -0.50000000E-02      0.48500000E+00
      0.10000000E+00     -0.50000000E-02      0.48500000E+00
      0.15000000E+00     -0.50000000E-02      0.48500000E+00
      0.20000000E+00     -0.50000000E-02      0.48500000E+00
      0.25000000E+00     -0.50000000E-02      0.48500000E+00
      0.30000000E+00     -0.50000000E-02      0.48500000E+00
      0.35000000E+00     -0.50000000E-02      0.48500000E+00
      0.40000000E+00     -0.50000000E-02      0.48500000E+00
      0.50000000E-01      0.00000000E+00      0.42500000E+00
      0.10000000E+00      0.00000000E+00      0.42500000E+00
      0.15000000E+00      0.00000000E+00      0.42500000E+00
      0.20000000E+00      0.00000000E+00      0.42500000E+00
      0.25000000E+00      0.00000000E+00      0.42500000E+00
      0.30000000E+00      0.00000000E+00      0.42500000E+00
      0.35000000E+00      0.00000000E+00      0.42500000E+00
      0.40000000E+00      0.00000000E+00      0.42500000E+00
      0.50000000E-01      0.00000000E+00      0.37500000E+00
      0.10000000E+00      0.00000000E+00      0.37500000E+00
      0.15000000E+00      0.00000000E+00      0.37500000E+00
      0.20000000E+00      0.00000000E+00      0.37500000E+00
      0.25000000E+00      0.00000000E+00      0.37500000E+00
      0.30000000E+00      0.00000000E+00      0.37500000E+00
      0.35000000E+00      0.00000000E+00      0.37500000E+00
      0.40000000E+00      0.00000000E+00      0.37500000E+00
      0.50000000E-01      0.00000000E+00      0.32500000E+00
      0.10000000E+00      0.00000000E+00      0.32500000E+00
      0.15000000E+00      0.00000000E+00      0.32500000E+00
      0.20000000E+00      0.00000000E+00      0.32500000E+00
      0.25000000E+00      0.00000000E+00      0.32500000E+00
      0.30000000E+00      0.00000000E+00      0.32500000E+00
      0.35000000E+00      0.00000000E+00      0.32500000E+00
      0.40000000E+00      0.00000000E+00      0.32500000E+00
      0.50000000E-01      0.00000000E+00      0.27500000E+00
      0.10000000E+00      0.00000000E+00      0.27500000E+00
      0.15000000E+00      0.00000000E+00      0.27500000E+00
      0.20000000E+00      0.00000000E+00      0.27500000E+00
      0.25000000E+00      0.00000000E+00      0.27500000E+00
      0.30000000E+00      0.00000000E+00      0.27500000E+00
      0.35000000E+00      0.00000000E+00      0.27500000E+00
      0.40000000E+00      0.00000000E+00      0.27500000E+00
      0.50000000E-01      0.00000000E+00      0.22500000E+00
      0.10000000E+00      0.00000000E+00      0.22500000E+00
      0.15000000E+00      0.00000000E+00      0.22500000E+00
      0.20000000E+00      0.00000000E+00      0.22500000E+00
      0.25000000E+00      0.00000000E+00      0.22500000E+00
      0.30000000E+00      0.00000000E+00      0.22500000E+00
      0.35000000E+00      0.00000000E+00      0.22500000E+00
      0.40000000E+00      0.00000000E+00      0.22500000E+00
      0.50000000E-01      0.00000000E+00      0.17500000E+00
      0.10000000E+00      0.00000000E+00      0.17500000E+00
      0.15000000E+00      0.00000000E+00      0.17500000E+00
      0.20000000E+00      0.00000000E+00      0.17500000E+00
      0.50000000E-01      0.00000000E+00      0.12500000E+00
      0.10000000E+00      0.00000000E+00      0.12500000E+00
      0.15000000E+00      0.00000000E+00      0.12500000E+00
      0.20000000E+00      0.00000000E+00      0.12500000E+00
      0.25000000E+00      0.00000000E+00      0.12500000E+00
      0.30000000E+00      0.00000000E+00      0.12500000E+00
      0.35000000E+00      0.00000000E+00      0.12500000E+00
      0.40000000E+00      0.00000000E+00      0.12500000E+00
      0.50000000E-01      0.00000000E+00      0.75000000E-01
      0.10000000E+00      0.00000000E+00      0.75000000E-01
      0.15000000E+00      0.00000000E+00      0.75000000E-01
      0.20000000E+00      0.00000000E+00      0.75000000E-01
      0.25000000E+00      0.00000000E+00      0.75000000E-01
      0.30000000E+00      0.00000000E+00      0.75000000E-01
      0.35000000E+00      0.00000000E+00      0.75000000E-01
      0.40000000E+00      0.00000000E+00      0.75000000E-01
      0.00000000E+00      0.00000000E+00      0.00000000E+00
      0.45000000E+00      0.00000000E+00      0.00000000E+00
      0.00000000E+00      0.00000000E+00      0.50000000E+00
      0.45000000E+00      0.00000000E+00      0.50000000E+00
      0.00000000E+00     -0.30000000E-01      0.00000000E+00
      0.45000000E+00     -0.30000000E-01      0.00000000E+00
      0.00000000E+00     -0.30000000E-01      0.50000000E+00
      0.45000000E+00     -0.30000000E-01      0.50000000E+00
      0.00000000E+00     -0.30000000E-01      0.10000000E-01
      0.00000000E+00     -0.30000000E-01      0.20000000E-01
      0.00000000E+00     -0.30000000E-01      0.30000000E-01
      0.00000000E+00     -0.30000000E-01      0.40000000E-01
      0.00000000E+00     -0.30000000E-01      0.50000000E-01
      0.00000000E+00     -0.30000000E-01      0.60000000E-01
      0.00000000E+00     -0.30000000E-01      0.70000000E-01
      0.00000000E+00     -0.30000000E-01      0.80000000E-01
      0.00000000E+00     -0.30000000E-01      0.90000000E-01
      0.00000000E+00     -0.30000000E-01      0.10000000E+00
      0.00000000E+00     -0.30000000E-01      0.11000000E+00
      0.00000000E+00     -0.30000000E-01      0.12000000E+00
      0.00000000E+00     -0.30000000E-01      0.13000000E+00
      0.00000000E+00     -0.30000000E-01      0.14000000E+00
      0.00000000E+00     -0.30000000E-01      0.15000000E+00
      0.00000000E+00     -0.30000000E-01      0.16000000E+00
      0.00000000E+00     -0.30000000E-01      0.17000000E+00
      0.00000000E+00     -0.30000000E-01      0.18000000E+00
      0.00000000E+00     -0.30000000E-01      0.19000000E+00
      0.00000000E+00     -0.30000000E-01      0.20000000E+00
      0.00000000E+00     -0.30000000E-01      0.21000000E+00
      0.00000000E+00     -0.30000000E-01      0.22000000E+00
      0.00000000E+00     -0.30000000E-01      0.23000000E+00
      0.00000000E+00     -0.30000000E-01      0.24000000E+00
      0.00000000E+00     -0.30000000E-01      0.25000000E+00
      0.00000000E+00     -0.30000000E-01      0.26000000E+00
      0.00000000E+00     -0.30000000E-01      0.27000000E+00
      0.00000000E+00     -0.30000000E-01      0.28000000E+00
      0.00000000E+00     -0.30000000E-01      0.29000000E+00
      0.00000000E+00     -0.30000000E-01      0.30000000E+00
      0.00000000E+00     -0.30000000E-01      0.31000000E+00
      0.00000000E+00     -0.30000000E-01      0.32000000E+00
      0.00000000E+00     -0.30000000E-01      0.33000000E+00
      0.00000000E+00     -0.30000000E-01      0.34000000E+00
      0.00000000E+00     -0.30000000E-01      0.35000000E+00
      0.00000000E+00     -0.30000000E-01      0.36000000E+00
      0.00000000E+00     -0.30000000E-01      0.37000000E+00
      0.00000000E+00     -0.30000000E-01      0.38000000E+00
      0.00000000E+00     -0.30000000E-01      0.39000000E+00
      0.00000000E+00     -0.30000000E-01      0.40000000E+00
      0.00000000E+00     -0.30000000E-01      0.41000000E+00
      0.00000000E+00     -0.30000000E-01      0.42000000E+00
      0.00000000E+00     -0.30000000E-01      0.43000000E+00
      0.00000000E+00     -0.30000000E-01      0.44000000E+00
      0.00000000E+00     -0.30000000E-01      0.45000000E+00
      0.00000000E+00     -0.30000000E-01      0.46000000E+00
      0.00000000E+00     -0.30000000E-01      0.47000000E+00
      0.00000000E+00     -0.30000000E-01      0.48000000E+00
      0.00000000E+00     -0.30000000E-01      0.49000000E+00
      0.10000000E-01     -0.30000000E-01      0.50000000E+00
      0.20000000E-01     -0.30000000E-01      0.50000000E+00
      0.30000000E-01     -0.30000000E-01      0.50000000E+00
      0.40000000E-01     -0.30000000E-01      0.50000000E+00
      0.50000000E-01     -0.30000000E-01      0.50000000E+00
      0.60000000E-01     -0.30000000E-01      0.50000000E+00
      0.70000000E-01     -0.30000000E-01      0.50000000E+00
      0.80000000E-01     -0.30000000E-01      0.50000000E+00
      0.90000000E-01     -0.30000000E-01      0.50000000E+00
      0.10000000E+00     -0.30000000E-01      0.50000000E+00
      0.11000000E+00     -0.30000000E-01      0.50000000E+00
      0.12000000E+00     -0.30000000E-01      0.50000000E+00
      0.13000000E+00     -0.30000000E-01      0.50000000E+00
      0.14000000E+00     -0.30000000E-01      0.50000000E+00
      0.15000000E+00     -0.30000000E-01      0.50000000E+00
      0.16000000E+00     -0.30000000E-01      0.50000000E+00
      0.17000000E+00     -0.30000000E-01      0.50000000E+00
      0.18000000E+00     -0.30000000E-01      0.50000000E+00
      0.19000000E+00     -0.30000000E-01      0.50000000E+00
      0.20000000E+00     -0.30000000E-01      0.50000000E+00
      0.21000000E+00     -0.30000000E-01      0.50000000E+00
      0.22000000E+00     -0.30000000E-01      0.50000000E+00
      0.23000000E+00     -0.30000000E-01      0.50000000E+00
      0.24000000E+00     -0.30000000E-01      0.50000000E+00
      0.25000000E+00     -0.30000000E-01      0.50000000E+00
      0.26000000E+00     -0.30000000E-01      0.50000000E+00
      0.27000000E+00     -0.30000000E-01      0.50000000E+00
      0.28000000E+00     -0.30000000E-01      0.50000000E+00
      0.29000000E+00     -0.30000000E-01      0.50000000E+00
      0.30000000E+00     -0.30000000E-01      0.50000000E+00
      0.31000000E+00     -0.30000000E-01      0.50000000E+00
      0.32000000E+00     -0.30000000E-01      0.50000000E+00
      0.33000000E+00     -0.30000000E-01      0.50000000E+00
      0.34000000E+00     -0.30000000E-01      0.50000000E+00
      0.35000000E+00     -0.30000000E-01      0.50000000E+00
      0.36000000E+00     -0.30000000E-01      0.50000000E+00
      0.37000000E+00     -0.30000000E-01      0.50000000E+00
[...]
POINT_DATA      8652
CELL_DATA     32557
SCALARS Resistivity(ohm.m) double 1
LOOKUP_TABLE default
            25.21060            27.62362            24.22739            28.51389            25.34212            41.35663            36.76971            32.63635            30.81281            36.53507            35.80722            42.03951            44.94710            28.03657            23.46320            22.94261            17.58620            50.37169            30.24583            39.33530            36.84586            24.68323            16.91092            36.97017            22.47653            25.15784            31.06359            35.71009            46.11277            19.35303            31.24603            29.01615            24.20146            31.38330            33.76614            31.48435            21.79628            55.63599            20.63742            31.24940            27.74868            39.32552            31.35156            26.09708            36.91344            30.83257            29.05966            33.00784            31.70488            41.17764            19.84825            57.87682            40.20324            31.52563            33.18271            26.40371            39.79477            36.65281            54.86112            22.99800            35.45278            20.04049            27.11013            23.61709            46.17772            30.97953            39.36473            31.40972            42.36192            27.93642            26.98033            18.17199            24.76288            37.05520            37.63045            24.29116            38.69823            35.90618            17.61115            18.41964            37.99545            32.78733            29.42350            29.99665            30.72134            25.53044            35.27772            37.74172            30.58266            40.10814            24.26466            37.18811            41.82609            32.38376            36.57336            35.09686            60.69979            32.65598            21.15722            36.92245            35.95385            21.63116            36.43353            32.72588            28.20545            29.95562            26.02545            25.15550            44.58818            20.09432            45.64413            31.19148            32.79993            31.01978            33.12149            29.78362            24.34466            44.89477            21.42414            30.56019            30.05548            26.29138            34.83100            36.79949            31.76024            38.58013            31.44227            31.92378            24.51901            27.39322            36.25101            29.68304            28.57117            27.87976            42.24210            25.37872            28.70974            33.85501            29.08151            26.45012            39.51649            27.89356            38.28273            30.43486            30.06671            44.76392            24.98583            18.51837            26.36953            17.13367            23.47705            17.65263            22.13844            36.76353            31.47770            18.19310            27.19411            37.54744            33.45052            56.36251            21.57995            37.40536            17.80488            37.36158            33.03807            23.05522            38.21119            24.28453            25.71033            23.20251            35.38549            37.67325            32.63524            27.14694            37.64478            26.82174            26.79868            27.95982            28.70763            31.53727            28.94251            35.34452            35.19106            33.96448            49.50572            38.49587            24.69441            28.26017            28.84655            30.77909            24.51426            18.10334            26.02433            28.33464            34.46783            38.28553            31.67375            34.15764            34.32795            31.37135            23.37856            37.44998            32.63527            29.71746            25.69916            37.45024            33.53210            28.03556            28.36821            35.16477            30.19286            30.57239            33.61940            29.02645            30.23389            35.92325            23.56672            36.82673            29.76242            25.03322            32.97599            37.55837            22.13548            42.36722            30.68509            24.97680            61.69330            33.62295            30.86438            35.42875            36.45233            32.24148            24.42752            23.83601            22.31440            28.45024            40.60932            31.80747            35.70562            21.54742            34.55356            39.14215            26.71641            23.43160            27.20615            39.08650            32.49910            35.44648            38.22617            30.04069            30.88915            29.83535            24.38134            22.26808            34.73295            32.71004            37.12268            22.56819            27.37755            31.32039            21.21899            30.94562            20.87616            25.87437            26.66536            31.25971            37.00777            17.71748            18.92481            32.64781            22.85555            22.13475            20.63819            37.79887            21.88538            25.26864            42.74538            26.21746            30.57185            25.72838            40.93571            32.60294            24.78787            32.58926            20.33383            28.68289            26.35035            24.10133            32.37420            35.10739            40.91095            26.85162            27.87166            24.89872            36.42198            35.66988            36.46620            25.44314            25.51532            25.40211            29.79542            23.31964            44.76355            31.89329            17.73071            22.30987            23.78863            20.87487            34.75053            43.47228            17.71832            59.90164            22.08365            31.61339            28.50046            27.71021            26.20556            35.73778            39.21159            33.12373            28.42923            35.27503            28.47227            24.70161            30.82855            35.97441            32.73572            28.45144            25.62488            31.05213            24.04313            31.38044            26.68828            35.34295            52.56154            35.93542            26.40152            26.06421            26.69826            39.69766            23.16992            31.43023            38.26067            34.20065            41.17033            33.64495            35.58012            28.13382            41.52872            27.89790            30.27398            42.60381            32.46423            24.86717            29.35980            35.59307            28.47224            30.38534            21.71397            17.84790            38.16961            31.92023            38.32769            29.26213            36.58376            34.08628            31.02799            30.10575            40.81149            22.05557            36.95697            28.58004            27.76255            36.43600            31.11268            26.62217            30.81378            23.66081            38.22478            27.41178            24.64120            33.04263            43.84190            17.32872            27.65125            21.93684            27.76819            30.05395            31.48112            36.91521            43.98013            42.64240            35.70689            38.51513            23.98902            24.99343            38.36161            34.19410            24.56210            28.20678            25.92910            25.55732            32.88756            30.82669            37.07204            61.31778            36.69789            35.08980            25.10424            32.34081            30.25659            24.72317            29.39674            31.60391            16.64536            31.79691            23.77340            28.74747            27.80862            38.91565            23.31178            49.56423            28.52908            37.09708            41.69690            34.90270            28.18385            24.50669            31.70455            45.22394            34.32606            29.23167            36.30071            35.00366            38.48326            33.11573            39.35895            42.27977            25.62168            30.70290            31.38857            26.47288            42.88204            41.35053            31.10854            37.37423            24.24098            33.89292            30.94436            42.56323            34.34784            43.70592            43.02840            32.60060            37.09745            24.29921            29.93241            34.92025            38.30489            21.51532            31.44443            28.52820            27.60814            38.97298            36.39401            31.34505            34.81086            30.45954            30.68446            36.68798            21.16552            30.53592            31.46439            30.31181            21.80104            31.73799            29.45838            21.49208            38.04693            31.61777            34.46575            32.89348            32.92936            21.46629            25.75872            27.10038            34.67497            31.42217            28.31526            25.40114            36.47335            28.66399            38.05230            38.01216            18.21361            30.20593            30.50096            38.78458            40.98822            35.02726            31.06249            25.43136            45.43295            30.77996            32.59482            24.47754            41.71419            36.21672            30.34543            34.29610            29.92387            39.51571            24.46142            31.81648            31.86419            30.71902            25.49993            37.26853            33.99868            21.39999            27.31383            22.75480            35.73495            34.13157            34.47200            30.33431            24.87907            38.73281            31.81009            38.10238            30.33501            34.83442            30.10802            37.04908            29.02209            29.16869            33.15579            28.62144            41.50128            37.17511            27.07311            32.22680            26.33011            28.72531            32.06014            27.32377            24.43657            19.25829            30.73778            28.29764            34.92265            39.16277            32.96635            29.72613            25.47384            23.71457            25.57339            35.00576            25.19570            17.60721            35.35366            25.87413            27.48303            33.03842            28.33353            44.32256            24.45400            25.99482            21.05943            33.39253            31.21770            30.79620            31.93532            23.83144            17.08110            32.21787            19.41609            31.94052            29.96642            31.20986            23.66023            28.57681            16.81392            26.54791            22.08803            36.88706            16.30230            29.68524            34.26339            31.53416            35.01404            25.97674            40.12847            32.79781            26.30119            31.44409            23.24958            30.75278            31.18666            31.10388            25.24949            29.06879            32.53568            22.58400            37.48451            25.78122            26.16177            30.73990            35.50900            24.81164            33.55096            17.85593            24.19710            32.24372            37.78043            28.82976            37.23078            32.12534            30.76556            31.28086            36.63220            31.06573            24.29474            31.72885            41.36029            21.57725            30.81275            30.84967            27.31850            38.42091            37.19679            26.37142            36.79361            36.14149            39.81198            28.65400            35.06338            29.11620            34.52841            29.78829            26.95231            31.02025            37.03510            24.61879            31.98799            19.49526            25.85014            42.06714            28.85371            30.66459            41.37519            35.70874            21.18975            36.68426            26.40045            31.12852            27.33319            32.75568            26.58986            30.76929            26.60744            24.66552            30.17479            37.43930            28.16186            29.81121            41.12797            41.68728            31.87824            31.00139            30.34229            17.84293            31.31864            60.25747            37.54777            16.73171            21.41685            33.41148            37.89381            30.80901            36.89130            37.89217            35.73269            35.99986            26.39225            29.80433            35.10387            24.28939            41.06093            41.67296            36.31576            41.10145            26.64384            31.10025            28.70138            38.13526            37.39292            32.21504            33.87126            41.14280            27.93572            29.76666            44.30433            25.20942            30.88173            30.77585            24.85929            26.45495            35.93856            22.22840            35.85851            20.12953            27.72721            41.40561            36.20426            30.64501            33.43065            32.25743            41.28171            25.29145            39.34516            20.59774            30.33671            29.59814            26.80816            25.32442            31.72359            34.64474            39.33941            37.98839            31.50105            44.83825            22.72064            37.57586            23.21978            34.60860            33.23350            29.65592            38.75940            38.87370            31.62594            30.43461            43.17311            26.87576            22.09426            35.70924            16.81501            34.44586            29.86479            18.26884            29.45628            26.94725            25.52740            32.75022            33.20814            22.10217            28.70835            32.62857            24.67179            19.99875            25.15984            38.73514            35.04040            35.03256            51.66767            39.35883            33.67909            18.97484            28.76626            30.56641            27.17780            28.82831            31.27380            39.66474            26.69571            41.78013            28.74220            28.41341            44.25452            31.48886            21.36537            34.57510            36.09606            30.12261            31.89005            28.59825            23.54396            53.03486            28.16998            31.79051            37.74497            34.30267            34.34672            36.95665            28.13810            27.73557            49.39342            26.03261            29.53683            32.11242            23.29678            39.36813            28.11530            30.17913            22.89875            32.69055            28.36506            25.42480            29.41099            17.83719            32.22658            28.35537            19.11691            22.13498            45.41973            25.39416            36.93921            29.03118            37.57587            42.64651            21.64085            21.39627            32.84123            43.99323            29.72320            28.56180            20.87422            27.53278            25.87502            29.82631            24.91980            23.70141            21.28598            27.37484            34.62757            24.93193            28.43821            28.95664            46.59859            32.43097            29.06897            25.74660            27.84139            27.77452            37.96845            21.11589            24.35606            38.26916            30.67949            30.10533            29.75072            33.85546            61.19168            41.57881            33.61841            38.21665            32.91181            27.02837            31.18592            24.64332            18.72552            44.49078            28.95890            27.98484            17.92877            31.56077            38.28928            30.16481            33.53895            46.81759            37.58169            22.72050            19.42322            40.67807            30.93434            37.49974            31.15336            36.51073            33.73120            21.65849            22.48389            37.56281            44.02795            34.02325            34.58575            30.79804            25.20972            38.24785            26.68053            34.42495            22.07289            36.02042            24.33787            26.90318            24.35236            31.38231            37.99193            24.69630            32.09913            31.22816            29.60277            38.28623            23.09620            32.69587            41.06497            34.04453            37.04063            38.01513            36.84596            31.66149            19.36582            22.66329            26.79592            29.21849            32.43751            26.35816            19.05500            37.58638            32.63182            22.01554            21.21111            25.62829            21.70426            38.22310            26.98164            39.00813            31.43307            52.52230            42.13773            31.79586            44.68319            31.92923            22.39016            30.42595            32.36818            36.68082            28.10397            33.63980            29.29779            29.32096            40.04006            36.79171            37.28265            37.69647            32.24823            18.93936            25.10422            37.46109            29.37281            30.96042            37.43921            19.44397            37.48115            29.09456            25.55032            30.76800            60.98284            30.40998            29.14809            31.45315            30.84693            19.73173            39.76418            36.00710            42.77554            24.30157            22.88950            22.57862            32.80363            38.65201            35.42403            31.55540            30.34320            27.42654            29.32833            50.32429            21.06848            17.26969            38.90289            33.84354            34.15639            29.01546            29.29520            21.86663            28.39514            38.23029            30.76967            29.27652            37.67157            29.32112            40.78940            27.83101            31.67494            36.18478            27.23052  