# vtk DataFile Version 3.0
Output from R3t
ASCII
DATASET UNSTRUCTURED_GRID
POINTS       8652 double
      0.50000000E-01     -0.50000000E-02      0.48500000E+00
      0.10000000E+00     -0.50000000E-02      0.48500000E+00
      0.15000000E+00     -0.50000000E-02      0.48500000E+00
      0.20000000E+00     -0.50000000E-02      0.48500000E+00
      0.25000000E+00     -0.50000000E-02      0.48500000E+00
      0.30000000E+00     -0.50000000E-02      0.48500000E+00
      0.35000000E+00     -0.50000000E-02      0.48500000E+00
      0.40000000E+00     -0.50000000E-02      0.48500000E+00
      0.50000000E-01      0.00000000E+00      0.42500000E+00
      0.10000000E+00      0.00000000E+00      0.42500000E+00
      0.15000000E+00      0.00000000E+00      0.42500000E+00
      0.20000000E+00      0.00000000E+00      0.42500000E+00
      0.25000000E+00      0.00000000E+00      0.42500000E+00
      0.30000000E+00      0.00000000E+00      0.42500000E+00
      0.35000000E+00      0.00000000E+00      0.42500000E+00
      0.40000000E+00      0.00000000E+00      0.42500000E+00
      0.50000000E-01      0.00000000E+00      0.37500000E+00
      0.10000000E+00      0.00000000E+00      0.37500000E+00
      0.15000000E+00      0.00000000E+00      0.37500000E+00
      0.20000000E+00      0.00000000E+00      0.37500000E+00
      0.25000000E+00      0.00000000E+00      0.37500000E+00
      0.30000000E+00      0.00000000E+00      0.37500000E+00
      0.35000000E+00      0.00000000E+00      0.37500000E+00
      0.40000000E+00      0.00000000E+00      0.37500000E+00
      0.50000000E-01      0.00000000E+00      0.32500000E+00
      0.10000000E+00      0.00000000E+00      0.32500000E+00
      0.15000000E+00      0.00000000E+00      0.32500000E+00
      0.20000000E+00      0.00000000E+00      0.32500000E+00
      0.25000000E+00      0.00000000E+00      0.32500000E+00
      0.30000000E+00      0.00000000E+00      0.32500000E+00
      0.35000000E+00      0.00000000E+00      0.32500000E+00
      0.40000000E+00      0.00000000E+00      0.32500000E+00
      0.50000000E-01      0.00000000E+00      0.27500000E+00
      0.10000000E+00      0.00000000E+00      0.27500000E+00
      0.15000000E+00      0.00000000E+00      0.27500000E+00
      0.20000000E+00      0.00000000E+00      0.27500000E+00
      0.25000000E+00      0.00000000E+00      0.27500000E+00
      0.30000000E+00      0.00000000E+00      0.27500000E+00
      0.35000000E+00      0.00000000E+00      0.27500000E+00
      0.40000000E+00      0.00000000E+00      0.27500000E+00
      0.50000000E-01      0.00000000E+00      0.22500000E+00
      0.10000000E+00      0.00000000E+00      0.22500000E+00
      0.15000000E+00      0.00000000E+00      0.22500000E+00
      0.20000000E+00      0.00000000E+00      0.22500000E+00
      0.25000000E+00      0.00000000E+00      0.22500000E+00
      0.30000000E+00      0.00000000E+00      0.22500000E+00
      0.35000000E+00      0.00000000E+00      0.22500000E+00
      0.40000000E+00      0.00000000E+00      0.22500000E+00
      0.50000000E-01      0.00000000E+00      0.17500000E+00
      0.10000000E+00      0.00000000E+00      0.17500000E+00
      0.15000000E+00      0.00000000E+00      0.17500000E+00
      0.20000000E+00      0.00000000E+00      0.17500000E+00
      0.50000000E-01      0.00000000E+00      0.12500000E+00
      0.10000000E+00      0.00000000E+00      0.12500000E+00
      0.15000000E+00      0.00000000E+00      0.12500000E+00
      0.20000000E+00      0.00000000E+00      0.12500000E+00
      0.25000000E+00      0.00000000E+00      0.12500000E+00
      0.30000000E+00      0.00000000E+00      0.12500000E+00
      0.35000000E+00      0.00000000E+00      0.12500000E+00
      0.40000000E+00      0.00000000E+00      0.12500000E+00
      0.50000000E-01      0.00000000E+00      0.75000000E-01
      0.10000000E+00      0.00000000E+00      0.75000000E-01
      0.15000000E+00      0.00000000E+00      0.75000000E-01
      0.20000000E+00      0.00000000E+00      0.75000000E-01
      0.25000000E+00      0.00000000E+00      0.75000000E-01
      0.30000000E+00      0.00000000E+00      0.75000000E-01
      0.35000000E+00      0.00000000E+00      0.75000000E-01
      0.40000000E+00      0.00000000E+00      0.75000000E-01
      0.00000000E+00      0.00000000E+00      0.00000000E+00
      0.45000000E+00      0.00000000E+00      0.00000000E+00
      0.00000000E+00      0.00000000E+00      0.50000000E+00
      0.45000000E+00      0.00000000E+00      0.50000000E+00
      0.00000000E+00     -0.30000000E-01      0.00000000E+00
      0.45000000E+00     -0.30000000E-01      0.00000000E+00
      0.00000000E+00     -0.30000000E-01      0.50000000E+00
      0.45000000E+00     -0.30000000E-01      0.50000000E+00
      0.00000000E+00     -0.30000000E-01      0.10000000E-01
      0.00000000E+00     -0.30000000E-01      0.20000000E-01
      0.00000000E+00     -0.30000000E-01      0.30000000E-01
      0.00000000E+00     -0.30000000E-01      0.40000000E-01
      0.00000000E+00     -0.30000000E-01      0.50000000E-01
      0.00000000E+00     -0.30000000E-01      0.60000000E-01
      0.00000000E+00     -0.30000000E-01      0.70000000E-01
      0.00000000E+00     -0.30000000E-01      0.80000000E-01
      0.00000000E+00     -0.30000000E-01      0.90000000E-01
      0.00000000E+00     -0.30000000E-01      0.10000000E+00
      0.00000000E+00     -0.30000000E-01      0.11000000E+00
      0.00000000E+00     -0.30000000E-01      0.12000000E+00
      0.00000000E+00     -0.30000000E-01      0.13000000E+00
      0.00000000E+00     -0.30000000E-01      0.14000000E+00
      0.00000000E+00     -0.30000000E-01      0.15000000E+00
      0.00000000E+00     -0.30000000E-01      0.16000000E+00
      0.00000000E+00     -0.30000000E-01      0.17000000E+00
      0.00000000E+00     -0.30000000E-01      0.18000000E+00
      0.00000000E+00     -0.30000000E-01      0.19000000E+00
      0.00000000E+00     -0.30000000E-01      0.20000000E+00
      0.00000000E+00     -0.30000000E-01      0.21000000E+00
      0.00000000E+00     -0.30000000E-01      0.22000000E+00
      0.00000000E+00     -0.30000000E-01      0.23000000E+00
      0.00000000E+00     -0.30000000E-01      0.24000000E+00
      0.00000000E+00     -0.30000000E-01      0.25000000E+00
      0.00000000E+00     -0.30000000E-01      0.26000000E+00
      0.00000000E+00     -0.30000000E-01      0.27000000E+00
      0.00000000E+00     -0.30000000E-01      0.28000000E+00
      0.00000000E+00     -0.30000000E-01      0.29000000E+00
      0.00000000E+00     -0.30000000E-01      0.30000000E+00
      0.00000000E+00     -0.30000000E-01      0.31000000E+00
      0.00000000E+00     -0.30000000E-01      0.32000000E+00
      0.00000000E+00     -0.30000000E-01      0.33000000E+00
      0.00000000E+00     -0.30000000E-01      0.34000000E+00
      0.00000000E+00     -0.30000000E-01      0.35000000E+00
      0.00000000E+00     -0.30000000E-01      0.36000000E+00
      0.00000000E+00     -0.30000000E-01      0.37000000E+00
      0.00000000E+00     -0.30000000E-01      0.38000000E+00
      0.00000000E+00     -0.30000000E-01      0.39000000E+00
      0.00000000E+00     -0.30000000E-01      0.40000000E+00
      0.00000000E+00     -0.30000000E-01      0.41000000E+00
      0.00000000E+00     -0.30000000E-01      0.42000000E+00
      0.00000000E+00     -0.30000000E-01      0.43000000E+00
      0.00000000E+00     -0.30000000E-01      0.44000000E+00
      0.00000000E+00     -0.30000000E-01      0.45000000E+00
      0.00000000E+00     -0.30000000E-01      0.46000000E+00
      0.00000000E+00     -0.30000000E-01      0.47000000E+00
      0.00000000E+00     -0.30000000E-01      0.48000000E+00
      0.00000000E+00     -0.30000000E-01      0.49000000E+00
      0.10000000E-01     -0.30000000E-01      0.50000000E+00
      0.20000000E-01     -0.30000000E-01      0.50000000E+00
      0.30000000E-01     -0.30000000E-01      0.50000000E+00
      0.40000000E-01     -0.30000000E-01      0.50000000E+00
      0.50000000E-01     -0.30000000E-01      0.50000000E+00
      0.60000000E-01     -0.30000000E-01      0.50000000E+00
      0.70000000E-01     -0.30000000E-01      0.50000000E+00
      0.80000000E-01     -0.30000000E-01      0.50000000E+00
      0.90000000E-01     -0.30000000E-01      0.50000000E+00
      0.10000000E+00     -0.30000000E-01      0.50000000E+00
      0.11000000E+00     -0.30000000E-01      0.50000000E+00
      0.12000000E+00     -0.30000000E-01      0.50000000E+00
      0.13000000E+00     -0.30000000E-01      0.50000000E+00
      0.14000000E+00     -0.30000000E-01      0.50000000E+00
      0.15000000E+00     -0.30000000E-01      0.50000000E+00
      0.16000000E+00     -0.30000000E-01      0.50000000E+00
      0.17000000E+00     -0.30000000E-01      0.50000000E+00
      0.18000000E+00     -0.30000000E-01      0.50000000E+00
      0.19000000E+00     -0.30000000E-01      0.50000000E+00
      0.20000000E+00     -0.30000000E-01      0.50000000E+00
      0.21000000E+00     -0.30000000E-01      0.50000000E+00
      0.22000000E+00     -0.30000000E-01      0.50000000E+00
      0.23000000E+00     -0.30000000E-01      0.50000000E+00
      0.24000000E+00     -0.30000000E-01      0.50000000E+00
      0.25000000E+00     -0.30000000E-01      0.50000000E+00
      0.26000000E+00     -0.30000000E-01      0.50000000E+00
      0.27000000E+00     -0.30000000E-01      0.50000000E+00
      0.28000000E+00     -0.30000000E-01      0.50000000E+00
      0.29000000E+00     -0.30000000E-01      0.50000000E+00
      0.30000000E+00     -0.30000000E-01      0.50000000E+00
      0.31000000E+00     -0.30000000E-01      0.50000000E+00
      0.32000000E+00     -0.30000000E-01      0.50000000E+00
      0.33000000E+00     -0.30000000E-01      0.50000000E+00
      0.34000000E+00     -0.30000000E-01      0.50000000E+00
      0.35000000E+00     -0.30000000E-01      0.50000000E+00
      0.36000000E+00     -0.30000000E-01      0.50000000E+00
      0.37000000E+00     -0.30000000E-01      0.50000000E+00
[...]
POINT_DATA      8652
CELL_DATA     32557
SCALARS Resistivity(ohm.m) double 1
LOOKUP_TABLE default
            35.77095            27.64112            34.95142            30.23649            31.17296            41.59724            34.25217            35.22691            32.17273            40.75406            40.20179            43.38518            42.63125            31.08720            31.42013            32.32364            29.62316            34.02652            31.87851            36.37451            41.04357            29.80789            28.46141            40.90595            29.35348            32.14590            35.74330            31.97420            38.48937            27.56156            32.14761            31.60567            29.69907            34.53654            27.71900            32.21910            28.36995            34.97051            29.58399            35.30006            30.10975            36.46561            30.90616            30.19292            35.27230            35.38299            28.24767            30.76565            33.36415            35.61475            26.32598            34.82798            44.58264            30.48937            31.26255            31.39061            44.31963            40.78283            33.72254            29.52279            37.36636            26.88867            33.76242            28.31442            32.02070            30.48969            35.32898            34.27439            41.76876            36.68869            31.94608            29.79919            32.35518            43.62965            39.80325            29.20716            34.15195            31.47508            29.93978            25.27428            42.21310            29.49976            35.39469            30.85573            32.25289            29.39873            40.82553            39.81522            30.03205            43.72526            31.01293            43.74993            38.04217            32.66866            41.93930            42.37975            30.94875            30.97495            33.72030            40.46962            40.49699            32.25443            32.09391            30.25596            36.14410            28.35720            32.24572            27.31291            42.86531            26.40236            32.65477            39.17894            30.41444            39.00380            31.24023            30.91586            29.38837            38.67879            33.98348            32.07020            30.40928            32.45042            33.86402            40.36179            34.64432            31.32400            35.58492            39.62284            30.97639            30.61428            41.98936            30.10571            31.30788            32.76677            43.22994            30.07841            29.15385            39.88650            31.81536            35.03837            29.79187            41.16376            42.19051            31.38407            31.86062            33.06797            35.77364            25.65327            32.07876            26.47223            33.15619            29.61822            27.26662            32.42910            35.30092            30.23457            29.26380            40.44912            31.47736            33.51266            28.26254            31.45471            25.82387            40.20505            39.75896            28.50412            38.75072            29.94158            31.38357            31.42120            42.64813            40.62832            30.74558            35.88439            40.47019            31.05915            31.29121            30.90325            28.03269            28.92793            28.04381            33.50416            32.08847            36.43895            30.20278            39.45941            34.53978            27.81159            30.47962            40.77573            31.05454            25.24446            32.16404            31.79114            41.60703            39.02765            27.52531            39.81402            29.24483            31.15981            32.65130            38.27195            30.37631            37.77573            36.18442            30.22651            27.94290            36.85482            35.23847            29.78741            30.50485            31.60470            31.25211            35.37561            27.15439            31.42366            31.60239            30.65329            27.13298            30.25484            31.08583            40.43673            34.22400            32.03749            34.99507            31.01613            34.03070            31.13983            40.77857            31.39960            33.33996            30.99769            35.21004            31.93281            32.95797            31.61330            33.11880            29.33985            32.10397            31.11564            31.39837            36.26022            32.12353            31.88647            32.82314            42.14524            35.37703            32.17039            42.16402            32.52547            31.69526            35.28090            32.60992            26.59748            40.49775            32.28880            32.16518            27.11320            35.17419            40.62572            28.91900            33.89897            27.45856            30.72316            34.22636            31.97244            42.31689            25.47081            27.41500            35.06288            32.96740            29.23091            29.63528            40.55259            32.43564            31.05835            44.53064            37.17628            30.43042            29.17883            42.14332            30.42823            35.79114            31.04553            26.56428            38.07741            29.63971            32.35117            30.27162            32.27907            32.24688            32.78342            32.20342            35.59343            41.41253            40.25180            40.70023            35.90435            29.81170            31.46129            32.18157            33.30992            31.74509            28.22499            30.25768            32.92746            30.25937            31.80610            32.07940            45.09166            29.38076            30.98094            28.72357            35.30938            37.25967            28.06565            30.61530            34.05823            34.61813            36.16884            28.12399            32.58576            36.82025            31.43274            35.33392            41.10821            33.07646            29.02100            30.46267            35.47531            31.89553            31.78570            30.22463            39.83951            34.35983            31.73826            35.31377            30.16063            28.49828            43.05018            31.75851            39.60962            34.80346            39.72877            43.22967            32.30670            37.69562            30.29231            35.80353            30.67287            29.46572            36.56871            28.98797            31.18553            33.53568            36.25998            30.99632            27.09038            32.40813            28.47249            39.43062            32.23430            40.56923            31.92990            39.20786            36.80194            40.77152            36.72441            43.78063            34.06123            40.29500            31.73050            32.19668            42.08355            30.33162            31.30495            35.79018            34.65292            42.28759            29.15705            30.91319            34.46170            31.67030            28.13840            31.76106            30.83940            29.31808            40.08581            34.09825            31.98738            42.02553            44.72781            40.11093            33.86780            34.87170            30.91738            39.87535            39.85468            29.38471            35.86807            31.14610            30.79875            35.45425            38.36432            40.31909            30.98410            40.77070            31.02065            35.80156            29.17626            27.90666            31.22344            31.56558            34.59215            29.13286            33.74249            33.13078            32.29729            31.72712            31.50978            32.08208            30.53260            31.75330            40.29748            32.41408            33.87501            33.11823            30.09995            35.30586            42.25081            29.91968            37.02183            31.22226            39.53902            38.12071            35.25357            34.47724            43.11746            30.84119            40.79831            39.42214            34.79115            44.95664            35.66648            30.85063            32.22086            30.18274            31.56545            31.34040            44.40522            37.31209            36.51288            45.08689            34.19425            41.37342            30.96326            28.60277            39.46676            39.49754            30.87325            32.06526            31.51397            28.71438            43.95369            31.85093            35.55862            33.68638            32.36744            34.00470            40.43360            33.34986            33.88157            39.67398            31.21307            30.63404            32.18050            31.68713            26.77186            39.67861            35.27078            39.39507            30.26269            31.82748            26.77136            34.37663            29.28966            31.48800            30.37685            37.86862            30.81369            40.89331            33.95830            42.01849            32.16493            27.69929            30.82256            28.82955            39.37217            42.94916            32.23822            28.86086            32.03954            32.59512            35.27970            35.62842            35.26796            36.90445            39.18019            28.55629            39.88326            28.57916            43.18915            30.51936            40.68107            30.72936            40.80022            30.19374            42.33440            31.74534            27.87093            31.83504            31.53004            29.74081            40.51678            39.38101            28.47633            31.15753            35.15168            35.32447            39.87981            30.52962            40.32739            31.34007            35.32071            31.99943            31.88183            29.87623            31.50942            43.70453            40.77359            28.84660            29.16780            31.19174            35.86226            35.50603            31.29556            34.54933            26.39352            35.30139            31.79829            40.28695            29.82134            30.30412            38.39613            36.45200            30.98261            27.15844            40.60112            34.96108            30.73116            40.16628            29.88422            30.63393            31.35640            29.68217            31.49204            32.67005            32.46249            30.11730            31.15367            31.58526            35.36012            31.70948            31.51381            25.99473            34.67465            27.22740            30.89861            31.23804            31.92319            33.12096            33.49672            26.44914            29.01721            31.29808            40.87520            26.51055            33.28359            40.68914            31.17011            29.43302            30.20167            42.87056            30.27727            30.66585            34.52187            34.67025            35.28697            33.07529            34.31858            32.02091            31.69763            30.00780            32.46537            40.40620            31.69696            31.33926            35.34455            40.30550            31.30621            36.30364            29.16031            30.49836            34.67505            32.76955            33.59766            42.15280            29.19299            35.34468            30.41434            40.34983            32.29241            30.26835            34.55119            43.09279            34.44779            28.60032            38.81746            31.24530            34.97234            39.93682            34.69649            32.42540            31.44664            30.90794            33.29026            40.81338            33.49745            31.11243            40.24556            28.13834            30.06314            37.53346            35.19233            32.30982            26.06717            31.01355            41.88589            33.86095            31.70756            35.70289            31.34612            27.80653            40.83047            31.16173            30.88319            33.92143            39.94734            31.39247            35.33151            32.57094            30.97887            31.46817            38.13689            33.14397            35.97226            43.27450            36.84250            32.41005            31.97979            30.57846            29.54868            35.55431            34.25384            30.25587            26.07885            28.68277            39.88920            39.69869            40.78399            34.75433            38.98421            43.06621            33.66767            32.21368            28.98990            40.73171            30.83470            43.29604            36.66982            31.81775            43.08788            26.85941            40.77306            31.15678            38.69004            35.23484            34.65325            31.35602            40.20698            32.27632            37.27068            33.37145            35.93188            28.82708            38.52259            31.93400            31.67793            43.00850            32.57927            40.35119            26.50041            34.66981            43.54569            31.40862            30.39434            39.81042            34.69833            43.21384            29.35150            41.90097            29.44076            28.67037            28.30493            32.71337            31.49302            34.14970            40.73102            29.78102            39.59610            40.45784            35.92888            32.23654            40.63017            32.94385            32.67398            39.93768            31.19964            29.75793            31.98503            30.24472            33.92014            41.92606            32.15512            29.58197            31.35840            27.12183            40.52952            35.33650            26.23115            32.20360            31.76657            35.96889            35.22127            29.76506            28.26027            31.74618            30.27062            33.32637            27.51899            29.03948            41.50077            32.81686            37.14687            37.28349            34.82760            32.61698            27.40984            28.42423            33.71426            33.72454            31.20819            35.83311            43.67323            30.88149            32.38462            28.25595            33.16688            29.99685            35.30312            28.73929            31.66851            41.00046            37.63388            29.86543            35.61034            34.27263            34.03400            31.55770            35.69177            36.13967            34.35095            31.98809            32.96863            31.53459            33.02461            30.19765            45.32198            31.22473            31.97594            31.10185            34.97542            31.74581            28.68807            28.50081            29.23707            33.14318            29.07204            29.70831            28.93163            29.59892            31.53426            25.78073            31.74772            42.08772            33.05205            38.07584            29.61920            38.34426            29.89908            28.45400            26.84480            39.86118            29.97520            38.73263            32.28853            29.75504            31.68796            32.37674            31.12880            32.41068            31.38061            31.18954            29.92052            35.99627            32.12955            28.12908            32.26197            32.53192            32.36490            31.65690            32.11978            35.47300            32.22531            39.04340            28.26496            30.01256            39.10507            38.63938            34.91600            31.96357            40.66614            34.26297            36.96448            40.58954            39.67554            29.63805            26.99213            32.73401            31.06444            27.15559            35.33157            30.95084            31.61819            26.16096            33.44317            39.26137            31.99308            29.50063            32.25234            32.38492            31.87233            26.56249            42.64285            31.75279            40.27281            31.99062            33.51489            35.68603            32.47312            31.53649            40.43357            29.96916            40.72841            34.03819            35.26900            30.37712            39.24045            32.10684            31.56841            27.09315            30.76771            32.57197            29.94708            31.37379            40.52627            35.07518            31.03824            31.17109            32.09262            31.77363            35.21959            31.70451            35.00040            35.60191            30.00962            40.98251            38.45822            40.70589            35.28574            26.66513            32.00453            31.06503            31.78877            35.79239            33.43541            26.05228            40.44992            28.10734            32.63219            31.04619            29.81133            28.90527            39.02101            32.70518            35.39105            34.84335            37.09640            42.72503            32.16022            41.85985            39.70020            30.98729            33.64589            38.54053            34.17507            30.99512            40.61952            32.11568            37.21622            44.19269            35.12508            40.72984            39.78768            29.42031            26.42654            44.74587            31.44338            32.48262            40.73418            42.27993            25.13825            40.54490            31.87563            32.35305            29.09131            34.31037            31.23696            31.58568            40.11283            35.35129            26.44296            41.66205            31.43269            32.23774            30.67264            35.04370            31.17768            30.37540            34.45577            31.90955            31.66635            35.93099            35.29676            31.47900            33.75042            27.86442            26.54385            42.15465            36.41426            39.77885            31.68607            31.93158            31.46797            34.47249            41.23391            35.34060            31.90942            39.77432            32.92138            42.71240            33.09984            30.36672            40.20823            35.34257  