# vtk DataFile Version 3.0
Output from R3t
ASCII
DATASET UNSTRUCTURED_GRID
POINTS       8652 double
      0.50000000E-01     -0.50000000E-02      0.48500000E+00
      0.10000000E+00     -0.50000000E-02      0.48500000E+00
      0.15000000E+00     -0.50000000E-02      0.48500000E+00
      0.20000000E+00     -0.50000000E-02      0.48500000E+00
      0.25000000E+00     -0.50000000E-02      0.48500000E+00
      0.30000000E+00     -0.50000000E-02      0.48500000E+00
      0.35000000E+00     -0.50000000E-02      0.48500000E+00
      0.40000000E+00     -0.50000000E-02      0.48500000E+00
      0.50000000E-01      0.00000000E+00      0.42500000E+00
      0.10000000E+00      0.00000000E+00      0.42500000E+00
      0.15000000E+00      0.00000000E+00      0.42500000E+00
      0.20000000E+00      0.00000000E+00      0.42500000E+00
      0.25000000E+00      0.00000000E+00      0.42500000E+00
      0.30000000E+00      0.00000000E+00      0.42500000E+00
      0.35000000E+00      0.00000000E+00      0.42500000E+00
      0.40000000E+00      0.00000000E+00      0.42500000E+00
      0.50000000E-01      0.00000000E+00      0.37500000E+00
      0.10000000E+00      0.00000000E+00      0.37500000E+00
      0.15000000E+00      0.00000000E+00      0.37500000E+00
      0.20000000E+00      0.00000000E+00      0.37500000E+00
      0.25000000E+00      0.00000000E+00      0.37500000E+00
      0.30000000E+00      0.00000000E+00      0.37500000E+00
      0.35000000E+00      0.00000000E+00      0.37500000E+00
      0.40000000E+00      0.00000000E+00      0.37500000E+00
      0.50000000E-01      0.00000000E+00      0.32500000E+00
      0.10000000E+00      0.00000000E+00      0.32500000E+00
      0.15000000E+00      0.00000000E+00      0.32500000E+00
      0.20000000E+00      0.00000000E+00      0.32500000E+00
      0.25000000E+00      0.00000000E+00      0.32500000E+00
      0.30000000E+00      0.00000000E+00      0.32500000E+00
      0.35000000E+00      0.00000000E+00      0.32500000E+00
      0.40000000E+00      0.00000000E+00      0.32500000E+00
      0.50000000E-01      0.00000000E+00      0.27500000E+00
      0.10000000E+00      0.00000000E+00      0.27500000E+00
      0.15000000E+00      0.00000000E+00      0.27500000E+00
      0.20000000E+00      0.00000000E+00      0.27500000E+00
      0.25000000E+00      0.00000000E+00      0.27500000E+00
      0.30000000E+00      0.00000000E+00      0.27500000E+00
      0.35000000E+00      0.00000000E+00      0.27500000E+00
      0.40000000E+00      0.00000000E+00      0.27500000E+00
      0.50000000E-01      0.00000000E+00      0.22500000E+00
      0.10000000E+00      0.00000000E+00      0.22500000E+00
      0.15000000E+00      0.00000000E+00      0.22500000E+00
      0.20000000E+00      0.00000000E+00      0.22500000E+00
      0.25000000E+00      0.00000000E+00      0.22500000E+00
      0.30000000E+00      0.00000000E+00      0.22500000E+00
      0.35000000E+00      0.00000000E+00      0.22500000E+00
      0.40000000E+00      0.00000000E+00      0.22500000E+00
      0.50000000E-01      0.00000000E+00      0.17500000E+00
      0.10000000E+00      0.00000000E+00      0.17500000E+00
      0.15000000E+00      0.00000000E+00      0.17500000E+00
      0.20000000E+00      0.00000000E+00      0.17500000E+00
      0.50000000E-01      0.00000000E+00      0.12500000E+00
      0.10000000E+00      0.00000000E+00      0.12500000E+00
      0.15000000E+00      0.00000000E+00      0.12500000E+00
      0.20000000E+00      0.00000000E+00      0.12500000E+00
      0.25000000E+00      0.00000000E+00      0.12500000E+00
      0.30000000E+00      0.00000000E+00      0.12500000E+00
      0.35000000E+00      0.00000000E+00      0.12500000E+00
      0.40000000E+00      0.00000000E+00      0.12500000E+00
      0.50000000E-01      0.00000000E+00      0.75000000E-01
      0.10000000E+00      0.00000000E+00      0.75000000E-01
      0.15000000E+00      0.00000000E+00      0.75000000E-01
      0.20000000E+00      0.00000000E+00      0.75000000E-01
      0.25000000E+00      0.00000000E+00      0.75000000E-01
      0.30000000E+00      0.00000000E+00      0.75000000E-01
      0.35000000E+00      0.00000000E+00      0.75000000E-01
      0.40000000E+00      0.00000000E+00      0.75000000E-01
      0.00000000E+00      0.00000000E+00      0.00000000E+00
      0.45000000E+00      0.00000000E+00      0.00000000E+00
      0.00000000E+00      0.00000000E+00      0.50000000E+00
      0.45000000E+00      0.00000000E+00      0.50000000E+00
      0.00000000E+00     -0.30000000E-01      0.00000000E+00
      0.45000000E+00     -0.30000000E-01      0.00000000E+00
      0.00000000E+00     -0.30000000E-01      0.50000000E+00
      0.45000000E+00     -0.30000000E-01      0.50000000E+00
      0.00000000E+00     -0.30000000E-01      0.10000000E-01
      0.00000000E+00     -0.30000000E-01      0.20000000E-01
      0.00000000E+00     -0.30000000E-01      0.30000000E-01
      0.00000000E+00     -0.30000000E-01      0.40000000E-01
      0.00000000E+00     -0.30000000E-01      0.50000000E-01
      0.00000000E+00     -0.30000000E-01      0.60000000E-01
      0.00000000E+00     -0.30000000E-01      0.70000000E-01
      0.00000000E+00     -0.30000000E-01      0.80000000E-01
      0.00000000E+00     -0.30000000E-01      0.90000000E-01
      0.00000000E+00     -0.30000000E-01      0.10000000E+00
      0.00000000E+00     -0.30000000E-01      0.11000000E+00
      0.00000000E+00     -0.30000000E-01      0.12000000E+00
      0.00000000E+00     -0.30000000E-01      0.13000000E+00
      0.00000000E+00     -0.30000000E-01      0.14000000E+00
      0.00000000E+00     -0.30000000E-01      0.15000000E+00
      0.00000000E+00     -0.30000000E-01      0.16000000E+00
      0.00000000E+00     -0.30000000E-01      0.17000000E+00
      0.00000000E+00     -0.30000000E-01      0.18000000E+00
      0.00000000E+00     -0.30000000E-01      0.19000000E+00
      0.00000000E+00     -0.30000000E-01      0.20000000E+00
      0.00000000E+00     -0.30000000E-01      0.21000000E+00
      0.00000000E+00     -0.30000000E-01      0.22000000E+00
      0.00000000E+00     -0.30000000E-01      0.23000000E+00
      0.00000000E+00     -0.30000000E-01      0.24000000E+00
      0.00000000E+00     -0.30000000E-01      0.25000000E+00
      0.00000000E+00     -0.30000000E-01      0.26000000E+00
      0.00000000E+00     -0.30000000E-01      0.27000000E+00
      0.00000000E+00     -0.30000000E-01      0.28000000E+00
      0.00000000E+00     -0.30000000E-01      0.29000000E+00
      0.00000000E+00     -0.30000000E-01      0.30000000E+00
      0.00000000E+00     -0.30000000E-01      0.31000000E+00
      0.00000000E+00     -0.30000000E-01      0.32000000E+00
      0.00000000E+00     -0.30000000E-01      0.33000000E+00
      0.00000000E+00     -0.30000000E-01      0.34000000E+00
      0.00000000E+00     -0.30000000E-01      0.35000000E+00
      0.00000000E+00     -0.30000000E-01      0.36000000E+00
      0.00000000E+00     -0.30000000E-01      0.37000000E+00
      0.00000000E+00     -0.30000000E-01      0.38000000E+00
      0.00000000E+00     -0.30000000E-01      0.39000000E+00
      0.00000000E+00     -0.30000000E-01      0.40000000E+00
      0.00000000E+00     -0.30000000E-01      0.41000000E+00
      0.00000000E+00     -0.30000000E-01      0.42000000E+00
      0.00000000E+00     -0.30000000E-01      0.43000000E+00
      0.00000000E+00     -0.30000000E-01      0.44000000E+00
      0.00000000E+00     -0.30000000E-01      0.45000000E+00
      0.00000000E+00     -0.30000000E-01      0.46000000E+00
      0.00000000E+00     -0.30000000E-01      0.47000000E+00
      0.00000000E+00     -0.30000000E-01      0.48000000E+00
      0.00000000E+00     -0.30000000E-01      0.49000000E+00
      0.10000000E-01     -0.30000000E-01      0.50000000E+00
      0.20000000E-01     -0.30000000E-01      0.50000000E+00
      0.30000000E-01     -0.30000000E-01      0.50000000E+00
      0.40000000E-01     -0.30000000E-01      0.50000000E+00
      0.50000000E-01     -0.30000000E-01      0.50000000E+00
      0.60000000E-01     -0.30000000E-01      0.50000000E+00
      0.70000000E-01     -0.30000000E-01      0.50000000E+00
      0.80000000E-01     -0.30000000E-01      0.50000000E+00
      0.90000000E-01     -0.30000000E-01      0.50000000E+00
      0.10000000E+00     -0.30000000E-01      0.50000000E+00
      0.11000000E+00     -0.30000000E-01      0.50000000E+00
      0.12000000E+00     -0.30000000E-01      0.50000000E+00
      0.13000000E+00     -0.30000000E-01      0.50000000E+00
      0.14000000E+00     -0.30000000E-01      0.50000000E+00
      0.15000000E+00     -0.30000000E-01      0.50000000E+00
      0.16000000E+00     -0.30000000E-01      0.50000000E+00
      0.17000000E+00     -0.30000000E-01      0.50000000E+00
      0.18000000E+00     -0.30000000E-01      0.50000000E+00
      0.19000000E+00     -0.30000000E-01      0.50000000E+00
      0.20000000E+00     -0.30000000E-01      0.50000000E+00
      0.21000000E+00     -0.30000000E-01      0.50000000E+00
      0.22000000E+00     -0.30000000E-01      0.50000000E+00
      0.23000000E+00     -0.30000000E-01      0.50000000E+00
      0.24000000E+00     -0.30000000E-01      0.50000000E+00
      0.25000000E+00     -0.30000000E-01      0.50000000E+00
      0.26000000E+00     -0.30000000E-01      0.50000000E+00
      0.27000000E+00     -0.30000000E-01      0.50000000E+00
      0.28000000E+00     -0.30000000E-01      0.50000000E+00
      0.29000000E+00     -0.30000000E-01      0.50000000E+00
      0.30000000E+00     -0.30000000E-01      0.50000000E+00
      0.31000000E+00     -0.30000000E-01      0.50000000E+00
      0.32000000E+00     -0.30000000E-01      0.50000000E+00
      0.33000000E+00     -0.30000000E-01      0.50000000E+00
      0.34000000E+00     -0.30000000E-01      0.50000000E+00
      0.35000000E+00     -0.30000000E-01      0.50000000E+00
      0.36000000E+00     -0.30000000E-01      0.50000000E+00
      0.37000000E+00     -0.30000000E-01      0.50000000E+00
[...]
POINT_DATA      8652
CELL_DATA     32557
SCALARS Resistivity(ohm.m) double 1
LOOKUP_TABLE default
            22.98907            25.01407            22.11210            30.80507            24.41305            31.88028            29.07294            30.31618            26.55648            31.37156            30.06470            31.18911            31.54690            24.01599            18.06003            21.43565            22.32075            48.61260            25.98326            29.24801            29.72124            21.62867            16.78997            31.90903            15.70997            19.75563            30.82855            33.23408            41.83372            19.19934            27.53989            23.75290            21.45546            28.82637            23.53134            27.64349            20.71713            53.12732            19.79351            30.22964            25.33327            29.17491            25.40896            21.60961            27.95460            31.34694            28.88184            28.82341            21.84753            39.41078            19.32540            54.46788            32.56344            28.54100            26.13766            24.39187            32.54947            31.36255            52.98932            17.25413            41.19456            17.55860            19.82696            15.69039            44.79718            29.62549            30.70140            21.37970            31.83725            34.64826            24.25568            21.67353            20.96927            30.98690            27.73690            19.82547            34.06885            33.33848            19.51440            17.20987            29.94972            27.82648            28.62676            25.04952            26.77747            20.71407            31.27024            27.87712            29.19873            30.38947            20.95365            31.29215            38.66762            28.55443            27.74250            30.07869            57.46842            25.76806            21.15178            30.39359            30.70691            19.06564            33.38317            29.45501            31.13007            28.60304            20.49597            16.61201            31.68587            19.83334            44.09621            24.71053            25.82373            24.57748            26.09630            24.58854            21.35443            40.70855            21.59610            25.27183            31.20511            20.44236            27.55734            30.21125            21.85119            31.65171            33.00909            27.45847            21.68236            20.75612            27.23639            25.45800            22.89658            29.70716            30.33198            24.75437            28.17636            23.86582            21.29270            26.45335            34.93605            33.18061            30.41133            26.33321            24.73485            43.58190            34.01761            17.71436            22.13217            14.81352            21.78054            19.46118            20.19846            33.01960            30.22139            22.05267            25.43960            29.88652            29.85232            54.49922            16.63797            34.46990            15.99512            27.51995            23.58660            15.23529            27.15314            15.13612            19.50225            21.46869            30.19288            30.24717            28.98770            26.68854            29.82323            25.14080            25.17156            22.51984            25.88469            26.52835            28.24553            30.91763            31.13475            38.23163            44.96524            28.58680            21.10564            25.40273            31.16682            24.80753            21.34520            14.16983            18.41126            23.29194            30.02232            27.25260            24.00838            23.84809            27.36692            25.31211            19.74739            23.44410            25.19098            23.09239            25.28393            34.50304            23.59056            31.91117            28.01687            30.85129            26.52582            22.16715            32.83368            28.35448            22.14729            32.10329            19.46288            30.80608            23.49933            24.39638            29.29622            29.80746            29.06347            40.41378            21.10872            18.38818            57.20840            32.74545            25.84765            32.59367            29.49023            28.49062            22.68766            19.22502            19.65162            23.27321            33.82421            28.01420            31.38833            21.71728            31.13230            28.96234            20.80941            21.88081            20.13700            30.88151            30.55624            32.75049            30.26986            20.82667            26.90257            20.71975            19.40969            18.91387            30.05646            26.76217            33.51714            19.68537            33.90761            24.62935            19.51069            24.59857            16.11624            22.03849            33.64341            22.47944            28.32313            16.01268            16.34821            30.14059            18.80021            14.33897            19.70962            29.91861            19.28311            18.52235            32.14899            25.60385            31.12449            20.29087            31.45656            26.15731            30.22570            25.78496            16.54528            25.88437            20.62098            19.57533            28.25770            31.70160            33.43855            24.88943            21.22481            32.93668            27.43894            30.14098            31.24901            29.78395            24.71325            24.20477            24.37236            21.66122            43.14389            23.66499            22.69624            19.52975            17.52807            17.87123            30.89527            32.41081            19.51789            56.59150            16.92037            30.37319            35.92852            25.53301            21.55819            28.26887            37.27622            36.88134            25.89039            28.12059            35.14450            18.70669            31.02974            26.74573            29.02774            25.15594            19.13381            32.11911            19.56663            26.57140            20.59620            30.42092            50.44653            31.42010            26.22622            23.32077            27.92589            30.14132            20.00129            25.46267            33.37874            23.75331            31.38722            31.60535            41.69541            25.57244            32.43872            21.21164            26.39567            39.90270            26.60084            18.29771            23.69620            23.51199            22.55168            22.17851            19.01203            18.43990            27.72698            26.25812            45.69952            24.17314            31.81186            39.28074            26.17809            36.31607            30.51302            21.49430            27.19050            23.48008            21.12217            27.54954            27.40604            25.03430            30.87955            23.42858            30.10251            25.22103            18.93907            25.78796            41.75183            16.98225            22.56932            19.13106            25.71761            27.19911            21.09644            33.75017            31.80106            31.79737            29.83388            34.75708            24.25657            18.32052            25.39502            23.88961            20.76358            32.82868            19.40614            18.76395            30.81989            23.37295            29.95034            57.61191            31.28028            28.67737            34.73669            26.52697            25.43294            18.75753            23.98765            28.99062            17.18757            22.00300            22.17750            19.08814            22.71154            36.22808            21.57142            47.86053            21.27409            29.87807            33.75527            27.60345            26.26837            15.48046            30.27955            31.30279            30.34375            35.85172            33.75286            30.54948            28.53253            25.30523            37.91480            30.35816            24.71637            25.09806            24.86711            19.37011            32.11526            32.41314            25.34843            33.62323            21.61208            30.75245            26.90864            32.10928            40.25136            41.09848            32.40608            21.11670            29.74788            17.13956            27.97249            23.72358            28.41075            16.15594            27.97798            25.62581            27.33828            32.29047            33.82490            32.89506            27.56685            29.02831            28.79037            30.45534            20.50955            20.88306            25.25356            22.05353            19.25753            26.09716            25.71389            19.73008            28.15630            30.27589            23.71860            25.20386            28.87523            19.47780            19.13209            20.89753            31.71840            28.23987            25.58453            21.54231            32.00078            22.46770            30.23047            33.91691            17.89173            25.35898            24.97011            34.43045            30.29084            31.17386            25.29862            20.45514            43.42738            30.60847            31.79329            31.34073            31.47262            31.03976            28.09010            23.92306            23.89237            30.16242            23.01080            27.38096            25.65892            25.06335            21.58604            28.72239            30.29472            14.67256            21.36126            19.22110            31.27992            29.60045            23.68289            28.72034            17.83017            35.07258            30.44198            25.01375            26.26321            29.86221            24.20704            29.51816            23.38786            24.06438            28.24885            25.59952            32.66186            30.80780            24.74770            26.43442            23.06089            32.93433            31.07712            24.02821            21.80203            15.71613            30.77464            23.26049            29.85926            34.67584            27.52829            29.76271            23.84582            21.30556            16.81152            30.41481            21.86709            22.77674            25.75389            20.55925            22.37450            26.10272            23.66132            42.76517            19.43052            16.74878            18.19051            26.30545            22.47900            31.19065            27.76709            18.11412            14.12470            29.67158            18.24583            28.19394            24.00393            27.25336            21.94856            22.18066            14.47082            24.98735            23.05359            31.71125            14.16543            23.77687            29.89398            30.01929            27.12486            23.17005            30.02665            25.09938            21.94779            28.74479            30.31428            30.66690            21.51426            28.75458            20.01566            23.88504            28.01737            20.85527            29.78830            22.27448            24.45887            31.14529            30.18871            18.54115            37.55358            20.50588            22.23462            29.67338            33.37429            22.50981            32.88871            26.55425            31.08193            27.81602            30.27290            29.99541            18.01381            29.15842            30.11673            24.04872            27.76736            24.37369            23.84582            34.18927            27.28537            34.33733            33.24061            32.55775            37.64333            26.50510            31.11343            23.65016            29.62051            27.31518            27.33730            27.36257            25.04183            22.40338            27.95041            18.79283            18.95240            31.90318            22.72886            24.19859            32.38869            32.40200            16.33101            31.43745            24.84148            25.53383            25.19040            23.74225            24.99443            30.99588            20.57455            17.81391            26.38599            24.12161            25.96212            32.49504            31.29611            31.45807            22.63134            27.10495            26.28819            21.77899            32.72647            56.35101            34.64431            13.95637            15.53052            23.79054            27.98380            25.68538            33.53845            24.93090            30.61895            32.06486            16.90011            25.38946            31.35220            20.28580            31.23624            31.50414            31.60906            31.39380            23.56494            26.29110            22.99837            27.83698            29.37692            29.64116            30.35530            36.02665            22.03284            36.40597            43.43746            30.38794            26.62544            23.73967            17.90220            23.62665            30.63660            19.80083            26.26957            16.29771            20.55042            31.39978            33.30213            31.23623            23.68411            29.70711            31.54509            22.29607            31.20262            19.28671            28.04723            28.70356            20.21501            16.66470            25.03868            30.29285            34.75662            27.31506            24.38515            42.60428            20.97304            30.33611            21.28490            28.10165            24.01300            23.74669            34.22464            36.51473            28.43554            28.75176            31.85133            23.36422            20.38929            32.26122            15.70243            29.87914            28.76395            17.63541            23.73314            23.85446            25.24223            30.31755            28.79148            19.96731            23.60347            25.09122            23.40486            19.29682            21.35890            31.34682            28.42825            40.53076            47.12076            34.24668            27.58451            16.22681            24.30647            20.67242            24.70465            23.20652            33.11672            32.88881            19.80843            33.36116            24.29744            26.49776            39.76953            28.57641            16.08249            31.07510            32.28480            36.82575            26.48523            32.81248            21.32049            51.14011            22.12237            33.78516            27.95717            29.11713            32.61446            32.83545            22.19073            20.80133            44.76215            34.24769            23.68014            30.18916            19.01442            38.19371            23.05318            28.38330            15.15391            25.58509            26.62272            20.02459            24.83241            19.68078            27.42677            22.23766            15.14229            18.45519            31.44691            23.94441            32.48398            26.38392            33.36988            37.95762            14.56671            19.73856            23.77603            39.44621            29.80863            19.10206            18.15567            21.86656            16.72997            23.44428            21.23255            18.11681            21.48203            24.30655            25.74342            17.70152            25.98447            19.01089            44.87511            30.68812            23.84655            20.37944            34.18866            21.40201            25.27162            14.43498            15.53654            26.89835            27.17204            19.42163            24.07558            29.49138            56.65885            31.30611            29.22010            28.31443            28.32527            24.54556            23.10268            21.79553            16.36459            42.77201            24.75729            21.91939            18.10035            21.66910            28.14985            24.91844            27.09236            45.18977            33.75703            18.57833            19.59364            31.22360            22.15027            27.95607            27.37659            29.70938            23.19180            19.00317            18.42366            29.79792            39.43933            29.69296            29.10245            30.34480            20.60665            26.77449            20.60565            33.09656            19.80146            30.07043            19.52020            22.30136            22.64278            25.08586            34.81247            18.11685            28.23532            25.70034            22.04774            34.88236            20.15665            30.06559            32.08982            30.15492            29.19114            25.53370            30.83840            30.33330            15.31751            23.72850            23.14981            21.49142            32.69939            19.53717            16.01226            29.79814            24.57384            19.44141            20.99910            25.06546            14.25757            26.63321            20.39591            30.32720            21.28563            47.91299            31.09239            26.10795            31.62536            27.35998            20.23049            20.36596            28.55830            28.99925            23.97620            29.26624            20.16139            35.99825            32.72301            28.02476            30.67561            27.75250            26.36573            18.46660            34.04453            34.28529            26.18878            25.06984            29.05905            14.88539            30.19861            24.00085            20.08649            26.19041            56.48734            24.00405            23.83641            25.45853            31.16320            16.21206            32.88574            33.24262            40.91982            22.81515            32.72949            20.62142            25.25092            30.58160            31.14362            25.63991            32.67269            34.14316            23.84755            48.65485            16.20625            14.86841            31.16740            38.08105            23.72662            23.82163            24.19899            19.95756            20.64564            31.65209            31.05626            24.17468            27.12793            21.10573            31.34873            20.66084            29.63125            30.07293            26.58178  