# vtk DataFile Version 3.0
Output from R3t
ASCII
DATASET UNSTRUCTURED_GRID
POINTS       8652 double
      0.50000000E-01     -0.50000000E-02      0.48500000E+00
      0.10000000E+00     -0.50000000E-02      0.48500000E+00
      0.15000000E+00     -0.50000000E-02      0.48500000E+00
      0.20000000E+00     -0.50000000E-02      0.48500000E+00
      0.25000000E+00     -0.50000000E-02      0.48500000E+00
      0.30000000E+00     -0.50000000E-02      0.48500000E+00
      0.35000000E+00     -0.50000000E-02      0.48500000E+00
      0.40000000E+00     -0.50000000E-02      0.48500000E+00
      0.50000000E-01      0.00000000E+00      0.42500000E+00
      0.10000000E+00      0.00000000E+00      0.42500000E+00
      0.15000000E+00      0.00000000E+00      0.42500000E+00
      0.20000000E+00      0.00000000E+00      0.42500000E+00
      0.25000000E+00      0.00000000E+00      0.42500000E+00
      0.30000000E+00      0.00000000E+00      0.42500000E+00
      0.35000000E+00      0.00000000E+00      0.42500000E+00
      0.40000000E+00      0.00000000E+00      0.42500000E+00
      0.50000000E-01      0.00000000E+00      0.37500000E+00
      0.10000000E+00      0.00000000E+00      0.37500000E+00
      0.15000000E+00      0.00000000E+00      0.37500000E+00
      0.20000000E+00      0.00000000E+00      0.37500000E+00
      0.25000000E+00      0.00000000E+00      0.37500000E+00
      0.30000000E+00      0.00000000E+00      0.37500000E+00
      0.35000000E+00      0.00000000E+00      0.37500000E+00
      0.40000000E+00      0.00000000E+00      0.37500000E+00
      0.50000000E-01      0.00000000E+00      0.32500000E+00
      0.10000000E+00      0.00000000E+00      0.32500000E+00
      0.15000000E+00      0.00000000E+00      0.32500000E+00
      0.20000000E+00      0.00000000E+00      0.32500000E+00
      0.25000000E+00      0.00000000E+00      0.32500000E+00
      0.30000000E+00      0.00000000E+00      0.32500000E+00
      0.35000000E+00      0.00000000E+00      0.32500000E+00
      0.40000000E+00      0.00000000E+00      0.32500000E+00
      0.50000000E-01      0.00000000E+00      0.27500000E+00
      0.10000000E+00      0.00000000E+00      0.27500000E+00
      0.15000000E+00      0.00000000E+00      0.27500000E+00
      0.20000000E+00      0.00000000E+00      0.27500000E+00
      0.25000000E+00      0.00000000E+00      0.27500000E+00
      0.30000000E+00      0.00000000E+00      0.27500000E+00
      0.35000000E+00      0.00000000E+00      0.27500000E+00
      0.40000000E+00      0.00000000E+00      0.27500000E+00
      0.50000000E-01      0.00000000E+00      0.22500000E+00
      0.10000000E+00      0.00000000E+00      0.22500000E+00
      0.15000000E+00      0.00000000E+00      0.22500000E+00
      0.20000000E+00      0.00000000E+00      0.22500000E+00
      0.25000000E+00      0.00000000E+00      0.22500000E+00
      0.30000000E+00      0.00000000E+00      0.22500000E+00
      0.35000000E+00      0.00000000E+00      0.22500000E+00
      0.40000000E+00      0.00000000E+00      0.22500000E+00
      0.50000000E-01      0.00000000E+00      0.17500000E+00
      0.10000000E+00      0.00000000E+00      0.17500000E+00
      0.15000000E+00      0.00000000E+00      0.17500000E+00
      0.20000000E+00      0.00000000E+00      0.17500000E+00
      0.50000000E-01      0.00000000E+00      0.12500000E+00
      0.10000000E+00      0.00000000E+00      0.12500000E+00
      0.15000000E+00      0.00000000E+00      0.12500000E+00
      0.20000000E+00      0.00000000E+00      0.12500000E+00
      0.25000000E+00      0.00000000E+00      0.12500000E+00
      0.30000000E+00      0.00000000E+00      0.12500000E+00
      0.35000000E+00      0.00000000E+00      0.12500000E+00
      0.40000000E+00      0.00000000E+00      0.12500000E+00
      0.50000000E-01      0.00000000E+00      0.75000000E-01
      0.10000000E+00      0.00000000E+00      0.75000000E-01
      0.15000000E+00      0.00000000E+00      0.75000000E-01
      0.20000000E+00      0.00000000E+00      0.75000000E-01
      0.25000000E+00      0.00000000E+00      0.75000000E-01
      0.30000000E+00      0.00000000E+00      0.75000000E-01
      0.35000000E+00      0.00000000E+00      0.75000000E-01
      0.40000000E+00      0.00000000E+00      0.75000000E-01
      0.00000000E+00      0.00000000E+00      0.00000000E+00
      0.45000000E+00      0.00000000E+00      0.00000000E+00
      0.00000000E+00      0.00000000E+00      0.50000000E+00
      0.45000000E+00      0.00000000E+00      0.50000000E+00
      0.00000000E+00     -0.30000000E-01      0.00000000E+00
      0.45000000E+00     -0.30000000E-01      0.00000000E+00
      0.00000000E+00     -0.30000000E-01      0.50000000E+00
      0.45000000E+00     -0.30000000E-01      0.50000000E+00
      0.00000000E+00     -0.30000000E-01      0.10000000E-01
      0.00000000E+00     -0.30000000E-01      0.20000000E-01
      0.00000000E+00     -0.30000000E-01      0.30000000E-01
      0.00000000E+00     -0.30000000E-01      0.40000000E-01
      0.00000000E+00     -0.30000000E-01      0.50000000E-01
      0.00000000E+00     -0.30000000E-01      0.60000000E-01
      0.00000000E+00     -0.30000000E-01      0.70000000E-01
      0.00000000E+00     -0.30000000E-01      0.80000000E-01
      0.00000000E+00     -0.30000000E-01      0.90000000E-01
      0.00000000E+00     -0.30000000E-01      0.10000000E+00
      0.00000000E+00     -0.30000000E-01      0.11000000E+00
      0.00000000E+00     -0.30000000E-01      0.12000000E+00
      0.00000000E+00     -0.30000000E-01      0.13000000E+00
      0.00000000E+00     -0.30000000E-01      0.14000000E+00
      0.00000000E+00     -0.30000000E-01      0.15000000E+00
      0.00000000E+00     -0.30000000E-01      0.16000000E+00
      0.00000000E+00     -0.30000000E-01      0.17000000E+00
      0.00000000E+00     -0.30000000E-01      0.18000000E+00
      0.00000000E+00     -0.30000000E-01      0.19000000E+00
      0.00000000E+00     -0.30000000E-01      0.20000000E+00
      0.00000000E+00     -0.30000000E-01      0.21000000E+00
      0.00000000E+00     -0.30000000E-01      0.22000000E+00
      0.00000000E+00     -0.30000000E-01      0.23000000E+00
      0.00000000E+00     -0.30000000E-01      0.24000000E+00
      0.00000000E+00     -0.30000000E-01      0.25000000E+00
      0.00000000E+00     -0.30000000E-01      0.26000000E+00
      0.00000000E+00     -0.30000000E-01      0.27000000E+00
      0.00000000E+00     -0.30000000E-01      0.28000000E+00
      0.00000000E+00     -0.30000000E-01      0.29000000E+00
      0.00000000E+00     -0.30000000E-01      0.30000000E+00
      0.00000000E+00     -0.30000000E-01      0.31000000E+00
      0.00000000E+00     -0.30000000E-01      0.32000000E+00
      0.00000000E+00     -0.30000000E-01      0.33000000E+00
      0.00000000E+00     -0.30000000E-01      0.34000000E+00
      0.00000000E+00     -0.30000000E-01      0.35000000E+00
      0.00000000E+00     -0.30000000E-01      0.36000000E+00
      0.00000000E+00     -0.30000000E-01      0.37000000E+00
      0.00000000E+00     -0.30000000E-01      0.38000000E+00
      0.00000000E+00     -0.30000000E-01      0.39000000E+00
      0.00000000E+00     -0.30000000E-01      0.40000000E+00
      0.00000000E+00     -0.30000000E-01      0.41000000E+00
      0.00000000E+00     -0.30000000E-01      0.42000000E+00
      0.00000000E+00     -0.30000000E-01      0.43000000E+00
      0.00000000E+00     -0.30000000E-01      0.44000000E+00
      0.00000000E+00     -0.30000000E-01      0.45000000E+00
      0.00000000E+00     -0.30000000E-01      0.46000000E+00
      0.00000000E+00     -0.30000000E-01      0.47000000E+00
      0.00000000E+00     -0.30000000E-01      0.48000000E+00
      0.00000000E+00     -0.30000000E-01      0.49000000E+00
      0.10000000E-01     -0.30000000E-01      0.50000000E+00
      0.20000000E-01     -0.30000000E-01      0.50000000E+00
      0.30000000E-01     -0.30000000E-01      0.50000000E+00
      0.40000000E-01     -0.30000000E-01      0.50000000E+00
      0.50000000E-01     -0.30000000E-01      0.50000000E+00
      0.60000000E-01     -0.30000000E-01      0.50000000E+00
      0.70000000E-01     -0.30000000E-01      0.50000000E+00
      0.80000000E-01     -0.30000000E-01      0.50000000E+00
      0.90000000E-01     -0.30000000E-01      0.50000000E+00
      0.10000000E+00     -0.30000000E-01      0.50000000E+00
      0.11000000E+00     -0.30000000E-01      0.50000000E+00
      0.12000000E+00     -0.30000000E-01      0.50000000E+00
      0.13000000E+00     -0.30000000E-01      0.50000000E+00
      0.14000000E+00     -0.30000000E-01      0.50000000E+00
      0.15000000E+00     -0.30000000E-01      0.50000000E+00
      0.16000000E+00     -0.30000000E-01      0.50000000E+00
      0.17000000E+00     -0.30000000E-01      0.50000000E+00
      0.18000000E+00     -0.30000000E-01      0.50000000E+00
      0.19000000E+00     -0.30000000E-01      0.50000000E+00
      0.20000000E+00     -0.30000000E-01      0.50000000E+00
      0.21000000E+00     -0.30000000E-01      0.50000000E+00
      0.22000000E+00     -0.30000000E-01      0.50000000E+00
      0.23000000E+00     -0.30000000E-01      0.50000000E+00
      0.24000000E+00     -0.30000000E-01      0.50000000E+00
      0.25000000E+00     -0.30000000E-01      0.50000000E+00
      0.26000000E+00     -0.30000000E-01      0.50000000E+00
      0.27000000E+00     -0.30000000E-01      0.50000000E+00
      0.28000000E+00     -0.30000000E-01      0.50000000E+00
      0.29000000E+00     -0.30000000E-01      0.50000000E+00
      0.30000000E+00     -0.30000000E-01      0.50000000E+00
      0.31000000E+00     -0.30000000E-01      0.50000000E+00
      0.32000000E+00     -0.30000000E-01      0.50000000E+00
      0.33000000E+00     -0.30000000E-01      0.50000000E+00
      0.34000000E+00     -0.30000000E-01      0.50000000E+00
      0.35000000E+00     -0.30000000E-01      0.50000000E+00
      0.36000000E+00     -0.30000000E-01      0.50000000E+00
      0.37000000E+00     -0.30000000E-01      0.50000000E+00
[...]
POINT_DATA      8652
CELL_DATA     32557
SCALARS Resistivity(ohm.m) double 1
LOOKUP_TABLE default
            24.21489            35.66265            22.89216            43.48236            28.54180            34.30301            44.19523            36.12174            38.34746            42.61832            42.63402            38.56123            34.72113            35.01363            20.34790            21.45257            24.14386            57.77220            30.48911            43.28027            33.14364            25.21335            22.65697            42.35983            26.04226            23.62466            35.83474            42.67810            44.70472            22.54110            39.12513            40.86774            25.13761            33.66763            32.47860            34.67237            20.76654            56.41898            22.42018            38.33328            29.23061            43.20117            39.41873            31.63826            41.51467            41.49940            38.33310            35.14488            24.50000            48.11955            19.49114            57.33978            42.46602            40.84910            46.43144            28.09423            42.02468            43.06170            59.98486            22.21029            50.27389            22.20562            22.60228            26.15271            58.10915            39.40269            46.50931            35.22086            34.71105            40.74953            28.20296            24.63152            24.61027            38.52135            40.46991            24.64497            42.71304            35.69890            25.20373            18.74946            33.80865            38.86585            33.38801            41.58749            38.21897            24.65155            38.77396            40.53288            39.44920            41.74207            26.57615            38.17183            42.18596            36.00882            31.81662            35.64792            65.17956            42.21522            26.16811            44.48778            42.09967            19.73567            44.49585            40.29962            40.26360            38.78166            23.88959            24.76264            34.77174            20.23709            57.56971            30.90859            39.93170            30.48065            46.48495            40.93823            24.64524            43.66128            26.36327            43.98659            43.82036            24.01611            41.23441            44.39990            35.92665            44.59877            42.70231            32.18917            27.21434            24.20583            31.42051            35.21561            38.58247            41.11850            41.02967            28.52875            40.30440            35.64602            35.46358            26.46834            42.53587            39.18904            34.20607            37.06851            42.91915            57.39791            41.27844            18.86041            35.03080            19.76151            25.46775            24.69240            28.00135            39.06263            38.00643            25.01310            30.17121            45.64949            40.19217            60.97375            21.01906            45.15201            19.06487            39.52862            33.94845            26.66500            43.14793            24.53928            27.28118            23.38044            35.87231            45.61260            34.53700            25.21678            45.80137            26.40325            26.17939            33.18290            39.33662            37.99664            37.23357            39.13660            40.61618            47.51046            51.89713            41.77688            23.10484            37.36969            43.89236            32.58019            26.92799            18.38647            26.48039            39.96032            34.40756            43.03813            33.64285            36.58536            42.74343            39.26464            21.77661            44.57107            42.85438            29.85310            24.84116            44.09371            32.19916            40.91287            32.27900            39.20030            43.02089            25.49943            44.18446            32.93762            30.32501            43.88823            27.01426            44.26722            33.29049            28.34985            40.05936            45.72001            34.17021            52.37150            25.92453            25.62492            60.29220            44.21862            33.44203            42.38911            51.58868            39.23713            23.12688            27.86499            20.57023            39.84838            44.11224            39.97618            41.00644            23.45746            41.62879            42.93581            34.12190            23.26370            22.30213            36.27622            37.02900            44.06167            34.11954            22.60763            32.51083            25.89759            22.75682            25.00638            39.96197            47.47496            44.34812            26.43586            48.74518            33.19016            20.30268            36.85652            20.36920            25.99731            45.23296            25.64321            32.43862            19.24227            19.47365            35.38057            21.88478            26.35374            22.57094            45.92215            22.69087            25.84379            46.38490            25.79806            41.65908            23.16966            35.77221            39.68051            33.38671            41.79223            22.11188            28.65073            23.50133            22.87189            43.12356            41.05987            45.39114            28.63777            34.52032            39.42747            31.39164            42.21634            42.56168            32.78571            28.55112            28.73609            36.78095            25.40854            55.97800            31.31318            24.83078            20.64418            22.86350            18.50580            40.28041            45.98607            24.23992            64.19402            21.43203            37.93597            44.50015            38.71326            26.45418            42.54859            47.16017            45.86412            39.68297            48.81173            41.23887            24.15027            40.28484            30.69583            35.55426            31.23767            22.95844            41.99885            23.71339            39.33258            24.16395            33.15340            57.76097            41.61498            24.76233            28.50446            40.30546            39.62314            23.93934            31.36835            42.67939            36.96646            46.56902            41.32159            50.30209            29.78901            49.77990            32.91276            34.02889            44.12184            39.99836            24.73849            35.85202            40.61070            25.19355            30.49148            22.33494            24.93630            42.27841            46.21537            55.33333            42.53238            35.15342            47.58864            33.77852            42.36778            42.19029            25.82295            38.98340            40.30842            34.43248            31.71678            33.94552            25.79322            35.77166            27.84607            34.02695            30.26051            23.88071            38.30567            54.32276            23.08892            38.12965            22.25399            30.82509            30.19239            35.12658            43.76275            34.70872            44.51570            42.68370            43.41917            28.64201            25.51072            43.95160            36.40691            28.26035            36.78170            23.31135            23.01137            36.92601            32.59193            44.98545            64.74338            43.36786            40.16489            42.32835            39.80142            36.99047            24.02915            41.39279            33.80802            23.79379            24.84363            25.89269            31.48854            38.48613            47.22876            23.54897            57.50989            35.65020            45.07439            45.74604            41.36252            29.91471            26.49097            37.72960            34.72187            39.22288            42.03138            36.21032            32.38031            32.13398            38.62119            47.95993            40.35011            28.63093            32.69364            31.46603            24.54658            44.87777            50.13545            39.12957            38.38876            25.73998            40.56664            37.55778            46.37450            48.01157            45.29491            45.54429            36.23354            33.30036            22.64432            37.85208            40.00444            41.63464            22.55016            39.61196            28.29940            39.34840            40.98644            35.90294            42.34838            41.60193            38.71434            32.75845            43.98739            25.26333            34.22325            31.65011            26.02076            22.27489            45.88119            29.42867            26.54519            41.09154            37.70256            39.42716            43.50792            39.21116            26.51635            23.89589            27.88591            41.60650            41.00087            28.18894            32.75267            40.80966            34.90759            34.01206            44.17583            22.17417            41.78604            32.55612            37.88873            39.23548            34.13259            33.50667            23.82205            56.21489            39.86011            37.99752            36.93071            45.89586            34.34816            38.40225            36.40212            30.62399            39.97165            24.52245            35.35748            38.86384            32.66533            25.39049            32.77740            41.25285            25.20501            35.81659            23.86015            39.39245            39.02297            39.40817            39.47576            22.96889            44.83370            37.72128            43.84818            42.73781            40.53359            42.02421            33.18913            35.39805            41.77447            42.72565            28.31288            46.03262            44.85962            36.55678            39.68251            34.70107            36.86876            38.04942            35.58752            23.20103            19.88641            40.37715            39.90594            40.76666            42.42878            40.25589            36.10426            24.65139            23.55013            24.51811            40.09758            23.67659            25.79366            36.74527            24.12994            32.44130            46.42730            32.59536            55.34683            22.79427            31.81165            20.18856            44.55396            26.35372            41.27923            37.27097            20.44685            19.26012            34.15199            22.21833            38.93835            41.60117            39.13973            25.64035            34.68102            19.76565            37.28971            22.44310            42.59923            19.71533            36.22562            38.77190            42.88239            43.45466            27.92767            39.31049            43.51956            26.32051            33.69989            35.81337            40.07146            23.78085            33.40133            23.61194            41.12062            43.07289            20.59843            45.63720            34.97441            28.04878            40.77020            41.76929            24.36289            46.68746            23.84811            27.54749            34.14373            39.16114            34.98375            41.92756            36.39831            41.06931            33.67080            44.05309            39.38535            24.97965            33.81751            40.62286            28.53152            38.70325            30.24665            35.25181            43.73700            39.67094            48.53212            39.68206            44.66726            49.07390            30.12737            38.31063            35.63152            36.69815            30.14037            39.69127            41.59721            42.32239            23.46813            31.54795            19.45648            23.11304            34.47097            35.11021            37.73473            49.96099            43.06204            20.66363            43.19642            25.54155            40.98386            31.43794            33.58201            25.91730            40.87650            24.12374            23.03812            31.31073            43.58035            29.62923            36.61342            46.52624            45.91932            25.63784            38.77606            42.76411            24.25492            42.57209            59.48226            44.36900            19.37015            25.97927            34.62683            40.94908            33.26595            40.68495            43.68058            36.74563            40.58094            31.82852            32.58631            37.84600            26.18390            46.41606            46.08668            41.68792            46.78386            34.40601            33.87322            39.20566            43.25475            33.00207            34.08080            40.88596            39.25922            34.90938            42.77231            56.63156            33.27848            38.21902            31.49467            24.96080            25.00005            36.95727            23.27473            37.40486            21.92995            23.72405            46.38924            45.01087            42.18685            34.69751            34.22666            46.73494            29.02735            35.47785            22.75332            38.42871            38.65216            22.22374            28.20885            37.39805            39.16567            42.37621            41.85304            33.14886            47.65074            21.23834            45.44416            24.94284            50.00752            33.92806            40.99761            41.89923            45.42656            40.25655            32.63758            34.70575            35.90653            21.41495            42.90280            21.01421            39.46616            33.64474            18.65281            36.30592            27.94908            24.41044            35.99104            39.28423            23.05933            40.58521            42.38984            27.06562            22.75633            28.91923            46.06644            50.40971            49.43801            49.60429            43.51963            49.02688            19.77744            37.82680            34.01894            30.57546            39.08478            37.82376            42.99868            32.11466            45.67434            37.45453            30.12712            47.06867            34.54944            25.27710            42.48576            39.56416            43.45899            40.01714            37.13356            21.94087            58.58114            37.22062            43.48159            41.95962            33.14935            41.93308            39.28049            37.38072            24.53246            51.61266            37.85182            39.38565            41.07214            22.41797            48.53931            39.29506            38.83335            26.51925            39.86988            30.24914            23.24969            33.73214            23.61955            42.08022            37.30428            18.92028            21.36976            34.79861            27.63252            36.48574            32.52649            37.29418            45.34432            25.48896            26.92965            34.15516            46.70265            35.94493            31.42304            20.04549            36.77556            30.17515            24.84887            24.96307            20.33437            23.42927            27.96854            39.95164            25.24890            40.13021            31.64590            58.72433            40.74722            41.05318            23.73002            48.97385            34.56954            43.53786            25.46106            25.92912            43.04925            30.63162            24.53716            36.45859            38.23838            59.55256            45.58925            38.05290            41.19144            36.58332            36.49710            25.24605            27.30951            19.29691            50.24080            35.46012            36.89393            18.60660            24.62923            42.36394            43.33367            42.23896            58.90015            37.95215            21.62443            19.22723            47.12039            25.67085            31.68410            34.06855            52.07629            38.76940            22.38526            20.96286            45.71374            46.64857            38.35779            32.87183            39.19636            24.84595            42.98768            34.00574            44.25368            27.10182            43.06336            22.89389            31.86495            27.73207            33.32361            41.73409            24.87207            38.91254            44.98818            36.04300            44.29738            23.78635            35.11603            49.39639            44.57719            32.82474            43.56151            44.39724            37.73237            19.86384            22.97171            34.39339            35.64971            37.76130            23.27483            19.70048            45.75952            34.36342            20.20924            24.52200            28.77536            25.51022            43.15217            22.26970            45.67687            26.02420            50.33592            37.43029            45.95865            34.74691            32.25021            24.64057            23.26111            33.04357            44.20876            34.83738            37.98193            22.52206            42.39154            42.69767            41.55034            45.03696            40.53719            39.67265            18.65714            38.16436            44.83832            37.14323            32.81072            33.02920            19.52257            45.40093            41.65033            24.10973            41.64926            59.39580            38.98563            41.04701            32.45570            40.61236            21.65490            36.38061            43.22482            52.97038            24.42334            40.02779            22.36884            43.69819            48.00249            40.90364            29.39687            36.92257            48.60907            41.10025            58.75925            20.73546            20.33959            34.94120            47.32036            36.56515            41.00378            42.51746            24.03992            23.30279            35.14948            41.02422            42.12093            40.94395            22.76974            47.04345            33.25875            39.30889            43.39986            27.06329  