# vtk DataFile Version 3.0
Output from R3t
ASCII
DATASET UNSTRUCTURED_GRID
POINTS       8652 double
      0.50000000E-01     -0.50000000E-02      0.48500000E+00
      0.10000000E+00     -0.50000000E-02      0.48500000E+00
      0.15000000E+00     -0.50000000E-02      0.48500000E+00
      0.20000000E+00     -0.50000000E-02      0.48500000E+00
      0.25000000E+00     -0.50000000E-02      0.48500000E+00
      0.30000000E+00     -0.50000000E-02      0.48500000E+00
      0.35000000E+00     -0.50000000E-02      0.48500000E+00
      0.40000000E+00     -0.50000000E-02      0.48500000E+00
      0.50000000E-01      0.00000000E+00      0.42500000E+00
      0.10000000E+00      0.00000000E+00      0.42500000E+00
      0.15000000E+00      0.00000000E+00      0.42500000E+00
      0.20000000E+00      0.00000000E+00      0.42500000E+00
      0.25000000E+00      0.00000000E+00      0.42500000E+00
      0.30000000E+00      0.00000000E+00      0.42500000E+00
      0.35000000E+00      0.00000000E+00      0.42500000E+00
      0.40000000E+00      0.00000000E+00      0.42500000E+00
      0.50000000E-01      0.00000000E+00      0.37500000E+00
      0.10000000E+00      0.00000000E+00      0.37500000E+00
      0.15000000E+00      0.00000000E+00      0.37500000E+00
      0.20000000E+00      0.00000000E+00      0.37500000E+00
      0.25000000E+00      0.00000000E+00      0.37500000E+00
      0.30000000E+00      0.00000000E+00      0.37500000E+00
      0.35000000E+00      0.00000000E+00      0.37500000E+00
      0.40000000E+00      0.00000000E+00      0.37500000E+00
      0.50000000E-01      0.00000000E+00      0.32500000E+00
      0.10000000E+00      0.00000000E+00      0.32500000E+00
      0.15000000E+00      0.00000000E+00      0.32500000E+00
      0.20000000E+00      0.00000000E+00      0.32500000E+00
      0.25000000E+00      0.00000000E+00      0.32500000E+00
      0.30000000E+00      0.00000000E+00      0.32500000E+00
      0.35000000E+00      0.00000000E+00      0.32500000E+00
      0.40000000E+00      0.00000000E+00      0.32500000E+00
      0.50000000E-01      0.00000000E+00      0.27500000E+00
      0.10000000E+00      0.00000000E+00      0.27500000E+00
      0.15000000E+00      0.00000000E+00      0.27500000E+00
      0.20000000E+00      0.00000000E+00      0.27500000E+00
      0.25000000E+00      0.00000000E+00      0.27500000E+00
      0.30000000E+00      0.00000000E+00      0.27500000E+00
      0.35000000E+00      0.00000000E+00      0.27500000E+00
      0.40000000E+00      0.00000000E+00      0.27500000E+00
      0.50000000E-01      0.00000000E+00      0.22500000E+00
      0.10000000E+00      0.00000000E+00      0.22500000E+00
      0.15000000E+00      0.00000000E+00      0.22500000E+00
      0.20000000E+00      0.00000000E+00      0.22500000E+00
      0.25000000E+00      0.00000000E+00      0.22500000E+00
      0.30000000E+00      0.00000000E+00      0.22500000E+00
      0.35000000E+00      0.00000000E+00      0.22500000E+00
      0.40000000E+00      0.00000000E+00      0.22500000E+00
      0.50000000E-01      0.00000000E+00      0.17500000E+00
      0.10000000E+00      0.00000000E+00      0.17500000E+00
      0.15000000E+00      0.00000000E+00      0.17500000E+00
      0.20000000E+00      0.00000000E+00      0.17500000E+00
      0.50000000E-01      0.00000000E+00      0.12500000E+00
      0.10000000E+00      0.00000000E+00      0.12500000E+00
      0.15000000E+00      0.00000000E+00      0.12500000E+00
      0.20000000E+00      0.00000000E+00      0.12500000E+00
      0.25000000E+00      0.00000000E+00      0.12500000E+00
      0.30000000E+00      0.00000000E+00      0.12500000E+00
      0.35000000E+00      0.00000000E+00      0.12500000E+00
      0.40000000E+00      0.00000000E+00      0.12500000E+00
      0.50000000E-01      0.00000000E+00      0.75000000E-01
      0.10000000E+00      0.00000000E+00      0.75000000E-01
      0.15000000E+00      0.00000000E+00      0.75000000E-01
      0.20000000E+00      0.00000000E+00      0.75000000E-01
      0.25000000E+00      0.00000000E+00      0.75000000E-01
      0.30000000E+00      0.00000000E+00      0.75000000E-01
      0.35000000E+00      0.00000000E+00      0.75000000E-01
      0.40000000E+00      0.00000000E+00      0.75000000E-01
      0.00000000E+00      0.00000000E+00      0.00000000E+00
      0.45000000E+00      0.00000000E+00      0.00000000E+00
      0.00000000E+00      0.00000000E+00      0.50000000E+00
      0.45000000E+00      0.00000000E+00      0.50000000E+00
      0.00000000E+00     -0.30000000E-01      0.00000000E+00
      0.45000000E+00     -0.30000000E-01      0.00000000E+00
      0.00000000E+00     -0.30000000E-01      0.50000000E+00
      0.45000000E+00     -0.30000000E-01      0.50000000E+00
      0.00000000E+00     -0.30000000E-01      0.10000000E-01
      0.00000000E+00     -0.30000000E-01      0.20000000E-01
      0.00000000E+00     -0.30000000E-01      0.30000000E-01
      0.00000000E+00     -0.30000000E-01      0.40000000E-01
      0.00000000E+00     -0.30000000E-01      0.50000000E-01
      0.00000000E+00     -0.30000000E-01      0.60000000E-01
      0.00000000E+00     -0.30000000E-01      0.70000000E-01
      0.00000000E+00     -0.30000000E-01      0.80000000E-01
      0.00000000E+00     -0.30000000E-01      0.90000000E-01
      0.00000000E+00     -0.30000000E-01      0.10000000E+00
      0.00000000E+00     -0.30000000E-01      0.11000000E+00
      0.00000000E+00     -0.30000000E-01      0.12000000E+00
      0.00000000E+00     -0.30000000E-01      0.13000000E+00
      0.00000000E+00     -0.30000000E-01      0.14000000E+00
      0.00000000E+00     -0.30000000E-01      0.15000000E+00
      0.00000000E+00     -0.30000000E-01      0.16000000E+00
      0.00000000E+00     -0.30000000E-01      0.17000000E+00
      0.00000000E+00     -0.30000000E-01      0.18000000E+00
      0.00000000E+00     -0.30000000E-01      0.19000000E+00
      0.00000000E+00     -0.30000000E-01      0.20000000E+00
      0.00000000E+00     -0.30000000E-01      0.21000000E+00
      0.00000000E+00     -0.30000000E-01      0.22000000E+00
      0.00000000E+00     -0.30000000E-01      0.23000000E+00
      0.00000000E+00     -0.30000000E-01      0.24000000E+00
      0.00000000E+00     -0.30000000E-01      0.25000000E+00
      0.00000000E+00     -0.30000000E-01      0.26000000E+00
      0.00000000E+00     -0.30000000E-01      0.27000000E+00
      0.00000000E+00     -0.30000000E-01      0.28000000E+00
      0.00000000E+00     -0.30000000E-01      0.29000000E+00
      0.00000000E+00     -0.30000000E-01      0.30000000E+00
      0.00000000E+00     -0.30000000E-01      0.31000000E+00
      0.00000000E+00     -0.30000000E-01      0.32000000E+00
      0.00000000E+00     -0.30000000E-01      0.33000000E+00
      0.00000000E+00     -0.30000000E-01      0.34000000E+00
      0.00000000E+00     -0.30000000E-01      0.35000000E+00
      0.00000000E+00     -0.30000000E-01      0.36000000E+00
      0.00000000E+00     -0.30000000E-01      0.37000000E+00
      0.00000000E+00     -0.30000000E-01      0.38000000E+00
      0.00000000E+00     -0.30000000E-01      0.39000000E+00
      0.00000000E+00     -0.30000000E-01      0.40000000E+00
      0.00000000E+00     -0.30000000E-01      0.41000000E+00
      0.00000000E+00     -0.30000000E-01      0.42000000E+00
      0.00000000E+00     -0.30000000E-01      0.43000000E+00
      0.00000000E+00     -0.30000000E-01      0.44000000E+00
      0.00000000E+00     -0.30000000E-01      0.45000000E+00
      0.00000000E+00     -0.30000000E-01      0.46000000E+00
      0.00000000E+00     -0.30000000E-01      0.47000000E+00
      0.00000000E+00     -0.30000000E-01      0.48000000E+00
      0.00000000E+00     -0.30000000E-01      0.49000000E+00
      0.10000000E-01     -0.30000000E-01      0.50000000E+00
      0.20000000E-01     -0.30000000E-01      0.50000000E+00
      0.30000000E-01     -0.30000000E-01      0.50000000E+00
      0.40000000E-01     -0.30000000E-01      0.50000000E+00
      0.50000000E-01     -0.30000000E-01      0.50000000E+00
      0.60000000E-01     -0.30000000E-01      0.50000000E+00
      0.70000000E-01     -0.30000000E-01      0.50000000E+00
      0.80000000E-01     -0.30000000E-01      0.50000000E+00
      0.90000000E-01     -0.30000000E-01      0.50000000E+00
      0.10000000E+00     -0.30000000E-01      0.50000000E+00
      0.11000000E+00     -0.30000000E-01      0.50000000E+00
      0.12000000E+00     -0.30000000E-01      0.50000000E+00
      0.13000000E+00     -0.30000000E-01      0.50000000E+00
      0.14000000E+00     -0.30000000E-01      0.50000000E+00
      0.15000000E+00     -0.30000000E-01      0.50000000E+00
      0.16000000E+00     -0.30000000E-01      0.50000000E+00
      0.17000000E+00     -0.30000000E-01      0.50000000E+00
      0.18000000E+00     -0.30000000E-01      0.50000000E+00
      0.19000000E+00     -0.30000000E-01      0.50000000E+00
      0.20000000E+00     -0.30000000E-01      0.50000000E+00
      0.21000000E+00     -0.30000000E-01      0.50000000E+00
      0.22000000E+00     -0.30000000E-01      0.50000000E+00
      0.23000000E+00     -0.30000000E-01      0.50000000E+00
      0.24000000E+00     -0.30000000E-01      0.50000000E+00
      0.25000000E+00     -0.30000000E-01      0.50000000E+00
      0.26000000E+00     -0.30000000E-01      0.50000000E+00
      0.27000000E+00     -0.30000000E-01      0.50000000E+00
      0.28000000E+00     -0.30000000E-01      0.50000000E+00
      0.29000000E+00     -0.30000000E-01      0.50000000E+00
      0.30000000E+00     -0.30000000E-01      0.50000000E+00
      0.31000000E+00     -0.30000000E-01      0.50000000E+00
      0.32000000E+00     -0.30000000E-01      0.50000000E+00
      0.33000000E+00     -0.30000000E-01      0.50000000E+00
      0.34000000E+00     -0.30000000E-01      0.50000000E+00
      0.35000000E+00     -0.30000000E-01      0.50000000E+00
      0.36000000E+00     -0.30000000E-01      0.50000000E+00
      0.37000000E+00     -0.30000000E-01      0.50000000E+00
[...]
POINT_DATA      8652
CELL_DATA     32557
SCALARS Resistivity(ohm.m) double 1
LOOKUP_TABLE default
            26.22449            36.22032            24.77789            34.67497            28.17395            31.82460            45.02878            29.93062            35.93702            42.35344            42.05387            35.64810            32.13360            35.56190            20.42690            22.23750            21.57706            50.55820            30.32800            44.07296            32.40730            26.69745            24.31446            42.09315            23.53552            20.84315            32.76521            41.20413            41.98767            21.84900            36.56044            38.80507            26.45724            29.65902            38.15826            33.28676            21.02456            52.74211            20.79136            32.09678            28.66590            43.79571            39.38036            31.39324            43.40369            34.31051            34.20537            33.66682            23.54334            42.70411            20.44069            54.24077            40.57315            39.27708            44.56133            29.76850            40.57371            42.58089            54.06444            23.12261            43.80949            22.29708            22.77432            24.11774            49.16287            37.68891            47.41687            35.81727            32.34237            37.61395            29.78812            22.95386            24.28640            36.46863            36.70746            23.63029            39.99239            37.47300            26.39105            18.03926            33.17212            41.32911            31.36544            38.35921            35.90304            24.19486            40.00873            36.85840            37.48675            37.53242            25.54774            37.95841            39.25904            34.22825            31.80935            36.82019            61.28119            42.28290            29.15782            42.96300            41.93584            21.08378            43.16043            40.93597            37.25336            35.79729            21.08387            22.54691            32.12907            20.90394            48.23782            31.75287            41.42927            31.39845            44.54970            38.29569            26.28079            40.97088            29.72822            41.07275            35.52398            21.24343            42.64415            42.87907            36.14101            39.57957            36.30363            34.23705            25.20997            23.68957            31.55502            35.32756            36.88887            39.76031            36.96868            28.54822            33.56654            36.29952            34.13962            26.43800            42.88675            36.08631            33.44054            38.41025            40.37482            47.41848            36.58150            18.52511            31.26837            21.09029            27.48054            25.59071            25.80374            38.66879            31.66932            23.32814            30.54021            43.12254            39.44160            55.46435            22.30947            41.74869            18.83527            36.75192            35.44915            24.04665            38.60613            23.90120            25.50879            23.66328            36.88405            43.24736            33.74868            25.73928            43.11185            27.52061            27.51040            32.84603            39.10115            39.96528            34.42485            36.21147            37.42618            41.09409            51.60550            37.84487            24.65350            37.65716            35.11235            33.72912            25.25933            19.90439            24.85814            37.82261            32.69941            38.27168            37.55856            36.84041            45.50356            39.12167            23.48143            40.55486            43.23195            30.01504            25.67602            42.14134            37.26058            37.64092            31.36564            39.29303            37.90748            24.88181            39.85977            31.21810            35.94193            38.90972            24.79329            38.18964            36.29980            28.00051            39.52411            43.08841            31.88746            45.69228            24.96848            24.50772            57.56572            39.59876            34.68301            39.54954            47.70659            39.01616            24.69948            26.14783            22.09408            37.90548            41.67475            37.77938            37.44539            24.39398            40.15490            43.96916            31.30694            23.46250            21.91804            33.54650            30.69320            42.35850            33.37155            22.14790            31.94712            24.30630            22.44675            24.96719            40.53706            43.92752            43.98628            25.45714            45.00917            33.83895            21.40399            37.07450            21.76825            27.38655            41.48523            24.98884            32.27276            18.59127            21.33187            29.45142            22.76907            22.72278            20.89926            43.16612            24.53310            24.32491            41.85565            26.65280            36.55441            24.14317            33.36644            40.81212            34.60740            41.97084            22.22527            31.04894            24.37447            22.59825            40.97089            37.69065            41.97753            28.45275            32.41757            35.00736            31.46361            41.86045            42.26417            34.20648            28.75535            28.08527            34.61572            27.70100            48.12057            35.30087            22.53548            22.12367            23.52042            20.15420            36.78269            41.56055            24.91437            60.44383            22.64134            31.62860            38.64626            38.34823            26.70651            43.77527            42.17953            39.88995            39.10226            46.33398            38.22306            22.06515            33.93194            30.97590            33.77256            31.39865            23.69358            35.41361            20.51704            36.58322            23.82091            30.14413            51.20248            37.42364            25.38973            29.21316            33.30401            35.81158            21.28775            32.52404            39.02395            37.08992            41.87764            39.39181            44.33563            29.27650            50.11854            33.36527            35.41007            41.52489            42.24930            22.98962            34.98114            39.13906            25.11892            36.27194            24.24905            25.30481            37.37847            42.88835            49.43867            39.25249            33.11242            42.07084            34.99101            39.78509            37.91179            29.59040            36.39729            38.18643            32.31260            31.75377            32.34879            27.23136            33.01184            30.96619            33.33541            30.49931            21.92797            39.49881            47.24779            23.90331            36.59459            22.40872            31.49656            31.61686            35.83323            43.11393            32.09225            40.20938            42.02266            40.65911            31.58323            24.16907            39.37626            36.74681            27.21676            36.45097            22.28598            23.23133            30.62880            31.97404            43.00553            61.47570            42.66852            35.15653            37.58009            42.04884            40.24947            22.08246            39.35897            29.55152            23.99634            24.03215            27.78324            32.49868            36.84675            42.94386            23.67732            52.56409            34.47399            42.99939            42.63168            42.69317            28.56740            23.88894            31.36389            32.21700            38.90398            39.01876            37.64698            29.88912            31.20282            38.66497            42.58274            36.52414            28.64342            33.90337            32.18283            22.02692            40.64429            50.15015            38.94151            38.96680            26.66507            38.49141            38.56250            41.87624            43.04688            42.47660            41.38543            36.92848            32.57373            22.64780            35.42250            38.28361            37.53718            23.51779            36.90737            28.64161            32.88409            40.12426            38.15249            36.20965            42.67194            35.88871            29.68439            42.76734            27.89118            34.81269            32.55519            25.58917            22.64461            42.65602            29.38404            25.76754            37.20711            31.32936            37.76402            43.97866            38.02269            25.26035            21.59522            28.29326            39.03148            39.34743            30.53622            30.82887            41.34798            33.23242            33.26468            44.66511            22.93344            38.17807            33.84701            35.29846            35.66702            36.67396            34.79555            20.82324            47.98906            33.13811            32.46665            33.92026            46.84901            32.67816            36.35449            36.74158            33.74050            36.08930            24.16920            36.52192            39.39634            33.85018            26.80362            32.50365            38.71883            22.41473            34.78016            20.29165            39.65835            39.78635            37.78453            36.55812            23.09085            40.25324            31.43678            39.61220            38.50566            40.84518            40.31757            31.55874            34.27415            39.12007            41.44406            28.51973            42.66512            43.20465            30.79897            42.17991            32.60090            36.39564            32.25866            34.52324            25.10202            19.85893            33.44583            37.76638            40.98229            42.66517            33.77975            33.51669            26.14584            23.51669            22.40486            40.72046            25.37311            23.25766            35.48513            23.91964            32.18224            44.37537            32.85947            48.03935            22.50676            29.17818            21.63265            43.89255            25.83804            34.06885            35.70579            20.46791            20.76212            29.06521            22.14345            38.66667            40.08371            36.69929            27.48250            33.18394            21.16549            30.24764            23.24848            42.22016            21.13300            35.32748            39.68453            38.84780            46.57811            29.08190            35.54199            43.85794            27.67283            29.57117            32.76174            33.27576            22.94559            29.80765            20.68046            38.91997            41.40263            21.69716            43.06732            30.89497            29.73506            34.29701            41.63449            22.45647            40.49411            23.22462            25.81633            29.04926            39.08199            33.57005            41.08438            38.24959            33.93076            32.67028            42.75216            36.51707            23.84286            29.41079            36.57981            31.38017            37.90849            31.11502            34.66544            39.63099            36.46223            44.56020            39.01767            39.61562            44.87345            28.05007            39.67970            34.83331            34.77734            31.30251            33.84949            37.77519            39.38884            25.50629            30.05802            19.99876            23.52736            31.85661            33.59872            35.51322            50.09843            40.96523            21.99090            42.60820            26.93098            38.10368            30.12602            35.01763            27.44945            33.77448            21.45699            23.29435            31.04260            39.86042            27.78342            35.42227            41.72626            46.93437            24.89279            36.47573            38.18663            22.23371            36.03204            56.47666            42.29179            20.89410            23.16809            35.71018            37.02274            34.52195            37.66800            39.55151            35.47076            36.98747            29.55933            33.21061            39.41037            25.30450            41.58419            47.34638            37.40116            42.11589            33.80403            35.08064            37.83689            38.28607            31.39331            29.03846            39.86665            36.84799            32.59040            39.53415            47.02034            34.51551            39.20758            31.44109            22.90099            27.92375            35.26824            25.14072            35.61782            22.25586            23.76983            41.61398            40.88862            36.79030            35.86949            29.07653            42.18262            28.76164            33.02154            21.87505            36.22939            35.40543            21.97079            28.94783            37.96658            40.06477            42.72278            37.34446            33.99180            44.11870            22.07653            43.23994            26.77831            46.05327            35.06787            39.61097            42.21525            42.81620            39.54172            29.94897            32.22347            32.06669            22.21192            40.98290            21.93473            40.16638            31.17872            19.59441            34.20382            29.45024            25.35105            29.81959            41.68380            25.19457            38.39613            43.12593            28.75810            21.81202            28.76458            43.52378            46.45457            43.20111            46.90477            39.93765            45.02922            21.64703            38.31663            34.82298            29.37294            37.31575            35.41630            41.44572            31.86509            42.31429            38.06821            28.58345            47.10937            29.98660            23.48443            39.01830            40.29296            39.68478            41.27094            36.40245            23.86538            52.27597            35.67661            37.06853            42.83327            31.56919            39.79702            38.56759            35.83832            22.30010            51.37844            35.07414            36.90113            38.36285            22.19189            42.42141            37.42059            35.31163            23.99211            43.38897            29.00238            24.04229            34.02154            23.59819            41.55800            35.69564            19.43652            21.61586            32.33353            28.75908            33.97218            33.62896            34.55396            45.57384            22.94413            25.57346            35.32435            46.83790            33.31679            32.22695            21.60983            35.51114            31.35804            25.85667            24.59187            20.42486            23.96552            27.44484            39.51667            23.14890            39.41523            32.74916            48.99240            38.32487            38.90354            20.91548            45.11186            32.35495            39.33407            22.59353            23.83973            38.35592            33.22886            22.42311            35.25931            39.20030            56.91017            46.44985            39.01569            37.46104            37.02562            34.46164            26.01947            25.13132            20.61252            44.93127            36.53661            35.45431            19.54605            23.55185            37.62655            40.53471            44.44489            49.39733            38.90939            21.71335            20.29964            42.50276            24.95248            31.46328            32.85892            47.83634            37.80919            24.43262            21.17322            43.09626            46.83749            39.31962            31.22100            32.95258            21.51571            38.27874            31.23576            40.77741            25.35337            37.32026            22.60596            31.95375            26.17597            33.59072            38.57524            24.20005            39.09713            41.97434            34.45100            39.24895            21.57953            29.31352            49.61708            43.79420            32.22633            39.36386            43.03977            31.39126            20.02813            23.83196            33.62819            34.26462            33.87310            22.54459            19.48784            43.08542            38.18198            21.61970            22.55256            29.02951            21.82913            38.54551            22.02044            46.85569            25.47252            47.66203            34.67662            42.73819            32.19332            34.19858            21.78604            21.97861            29.95314            44.93767            35.54975            38.97596            21.95906            39.01170            41.05766            43.51226            43.24559            36.91019            41.83639            19.98359            35.91598            41.67723            34.54547            33.67245            32.66835            20.96852            43.18744            39.00938            21.35889            40.56001            56.71494            36.72976            38.99945            33.15355            34.12656            22.35404            34.90513            40.12093            45.97909            24.20205            37.06482            23.01285            43.89343            47.51593            36.99402            28.60882            35.35065            44.67764            39.23520            50.97561            21.86762            22.05590            33.97875            40.96236            36.95018            38.83136            39.30012            21.21964            23.65401            33.76659            33.87404            39.28023            36.74960            22.61535            42.58060            31.87065            38.76822            42.41771            26.69629  