# vtk DataFile Version 3.0
Output from R3t
ASCII
DATASET UNSTRUCTURED_GRID
POINTS       8652 double
      0.50000000E-01     -0.50000000E-02      0.48500000E+00
      0.10000000E+00     -0.50000000E-02      0.48500000E+00
      0.15000000E+00     -0.50000000E-02      0.48500000E+00
      0.20000000E+00     -0.50000000E-02      0.48500000E+00
      0.25000000E+00     -0.50000000E-02      0.48500000E+00
      0.30000000E+00     -0.50000000E-02      0.48500000E+00
      0.35000000E+00     -0.50000000E-02      0.48500000E+00
      0.40000000E+00     -0.50000000E-02      0.48500000E+00
      0.50000000E-01      0.00000000E+00      0.42500000E+00
      0.10000000E+00      0.00000000E+00      0.42500000E+00
      0.15000000E+00      0.00000000E+00      0.42500000E+00
      0.20000000E+00      0.00000000E+00      0.42500000E+00
      0.25000000E+00      0.00000000E+00      0.42500000E+00
      0.30000000E+00      0.00000000E+00      0.42500000E+00
      0.35000000E+00      0.00000000E+00      0.42500000E+00
      0.40000000E+00      0.00000000E+00      0.42500000E+00
      0.50000000E-01      0.00000000E+00      0.37500000E+00
      0.10000000E+00      0.00000000E+00      0.37500000E+00
      0.15000000E+00      0.00000000E+00      0.37500000E+00
      0.20000000E+00      0.00000000E+00      0.37500000E+00
      0.25000000E+00      0.00000000E+00      0.37500000E+00
      0.30000000E+00      0.00000000E+00      0.37500000E+00
      0.35000000E+00      0.00000000E+00      0.37500000E+00
      0.40000000E+00      0.00000000E+00      0.37500000E+00
      0.50000000E-01      0.00000000E+00      0.32500000E+00
      0.10000000E+00      0.00000000E+00      0.32500000E+00
      0.15000000E+00      0.00000000E+00      0.32500000E+00
      0.20000000E+00      0.00000000E+00      0.32500000E+00
      0.25000000E+00      0.00000000E+00      0.32500000E+00
      0.30000000E+00      0.00000000E+00      0.32500000E+00
      0.35000000E+00      0.00000000E+00      0.32500000E+00
      0.40000000E+00      0.00000000E+00      0.32500000E+00
      0.50000000E-01      0.00000000E+00      0.27500000E+00
      0.10000000E+00      0.00000000E+00      0.27500000E+00
      0.15000000E+00      0.00000000E+00      0.27500000E+00
      0.20000000E+00      0.00000000E+00      0.27500000E+00
      0.25000000E+00      0.00000000E+00      0.27500000E+00
      0.30000000E+00      0.00000000E+00      0.27500000E+00
      0.35000000E+00      0.00000000E+00      0.27500000E+00
      0.40000000E+00      0.00000000E+00      0.27500000E+00
      0.50000000E-01      0.00000000E+00      0.22500000E+00
      0.10000000E+00      0.00000000E+00      0.22500000E+00
      0.15000000E+00      0.00000000E+00      0.22500000E+00
      0.20000000E+00      0.00000000E+00      0.22500000E+00
      0.25000000E+00      0.00000000E+00      0.22500000E+00
      0.30000000E+00      0.00000000E+00      0.22500000E+00
      0.35000000E+00      0.00000000E+00      0.22500000E+00
      0.40000000E+00      0.00000000E+00      0.22500000E+00
      0.50000000E-01      0.00000000E+00      0.17500000E+00
      0.10000000E+00      0.00000000E+00      0.17500000E+00
      0.15000000E+00      0.00000000E+00      0.17500000E+00
      0.20000000E+00      0.00000000E+00      0.17500000E+00
      0.50000000E-01      0.00000000E+00      0.12500000E+00
      0.10000000E+00      0.00000000E+00      0.12500000E+00
      0.15000000E+00      0.00000000E+00      0.12500000E+00
      0.20000000E+00      0.00000000E+00      0.12500000E+00
      0.25000000E+00      0.00000000E+00      0.12500000E+00
      0.30000000E+00      0.00000000E+00      0.12500000E+00
      0.35000000E+00      0.00000000E+00      0.12500000E+00
      0.40000000E+00      0.00000000E+00      0.12500000E+00
      0.50000000E-01      0.00000000E+00      0.75000000E-01
      0.10000000E+00      0.00000000E+00      0.75000000E-01
      0.15000000E+00      0.00000000E+00      0.75000000E-01
      0.20000000E+00      0.00000000E+00      0.75000000E-01
      0.25000000E+00      0.00000000E+00      0.75000000E-01
      0.30000000E+00      0.00000000E+00      0.75000000E-01
      0.35000000E+00      0.00000000E+00      0.75000000E-01
      0.40000000E+00      0.00000000E+00      0.75000000E-01
      0.00000000E+00      0.00000000E+00      0.00000000E+00
      0.45000000E+00      0.00000000E+00      0.00000000E+00
      0.00000000E+00      0.00000000E+00      0.50000000E+00
      0.45000000E+00      0.00000000E+00      0.50000000E+00
      0.00000000E+00     -0.30000000E-01      0.00000000E+00
      0.45000000E+00     -0.30000000E-01      0.00000000E+00
      0.00000000E+00     -0.30000000E-01      0.50000000E+00
      0.45000000E+00     -0.30000000E-01      0.50000000E+00
      0.00000000E+00     -0.30000000E-01      0.10000000E-01
      0.00000000E+00     -0.30000000E-01      0.20000000E-01
      0.00000000E+00     -0.30000000E-01      0.30000000E-01
      0.00000000E+00     -0.30000000E-01      0.40000000E-01
      0.00000000E+00     -0.30000000E-01      0.50000000E-01
      0.00000000E+00     -0.30000000E-01      0.60000000E-01
      0.00000000E+00     -0.30000000E-01      0.70000000E-01
      0.00000000E+00     -0.30000000E-01      0.80000000E-01
      0.00000000E+00     -0.30000000E-01      0.90000000E-01
      0.00000000E+00     -0.30000000E-01      0.10000000E+00
      0.00000000E+00     -0.30000000E-01      0.11000000E+00
      0.00000000E+00     -0.30000000E-01      0.12000000E+00
      0.00000000E+00     -0.30000000E-01      0.13000000E+00
      0.00000000E+00     -0.30000000E-01      0.14000000E+00
      0.00000000E+00     -0.30000000E-01      0.15000000E+00
      0.00000000E+00     -0.30000000E-01      0.16000000E+00
      0.00000000E+00     -0.30000000E-01      0.17000000E+00
      0.00000000E+00     -0.30000000E-01      0.18000000E+00
      0.00000000E+00     -0.30000000E-01      0.19000000E+00
      0.00000000E+00     -0.30000000E-01      0.20000000E+00
      0.00000000E+00     -0.30000000E-01      0.21000000E+00
      0.00000000E+00     -0.30000000E-01      0.22000000E+00
      0.00000000E+00     -0.30000000E-01      0.23000000E+00
      0.00000000E+00     -0.30000000E-01      0.24000000E+00
      0.00000000E+00     -0.30000000E-01      0.25000000E+00
      0.00000000E+00     -0.30000000E-01      0.26000000E+00
      0.00000000E+00     -0.30000000E-01      0.27000000E+00
      0.00000000E+00     -0.30000000E-01      0.28000000E+00
      0.00000000E+00     -0.30000000E-01      0.29000000E+00
      0.00000000E+00     -0.30000000E-01      0.30000000E+00
      0.00000000E+00     -0.30000000E-01      0.31000000E+00
      0.00000000E+00     -0.30000000E-01      0.32000000E+00
      0.00000000E+00     -0.30000000E-01      0.33000000E+00
      0.00000000E+00     -0.30000000E-01      0.34000000E+00
      0.00000000E+00     -0.30000000E-01      0.35000000E+00
      0.00000000E+00     -0.30000000E-01      0.36000000E+00
      0.00000000E+00     -0.30000000E-01      0.37000000E+00
      0.00000000E+00     -0.30000000E-01      0.38000000E+00
      0.00000000E+00     -0.30000000E-01      0.39000000E+00
      0.00000000E+00     -0.30000000E-01      0.40000000E+00
      0.00000000E+00     -0.30000000E-01      0.41000000E+00
      0.00000000E+00     -0.30000000E-01      0.42000000E+00
      0.00000000E+00     -0.30000000E-01      0.43000000E+00
      0.00000000E+00     -0.30000000E-01      0.44000000E+00
      0.00000000E+00     -0.30000000E-01      0.45000000E+00
      0.00000000E+00     -0.30000000E-01      0.46000000E+00
      0.00000000E+00     -0.30000000E-01      0.47000000E+00
      0.00000000E+00     -0.30000000E-01      0.48000000E+00
      0.00000000E+00     -0.30000000E-01      0.49000000E+00
      0.10000000E-01     -0.30000000E-01      0.50000000E+00
      0.20000000E-01     -0.30000000E-01      0.50000000E+00
      0.30000000E-01     -0.30000000E-01      0.50000000E+00
      0.40000000E-01     -0.30000000E-01      0.50000000E+00
      0.50000000E-01     -0.30000000E-01      0.50000000E+00
      0.60000000E-01     -0.30000000E-01      0.50000000E+00
      0.70000000E-01     -0.30000000E-01      0.50000000E+00
      0.80000000E-01     -0.30000000E-01      0.50000000E+00
      0.90000000E-01     -0.30000000E-01      0.50000000E+00
      0.10000000E+00     -0.30000000E-01      0.50000000E+00
      0.11000000E+00     -0.30000000E-01      0.50000000E+00
      0.12000000E+00     -0.30000000E-01      0.50000000E+00
      0.13000000E+00     -0.30000000E-01      0.50000000E+00
      0.14000000E+00     -0.30000000E-01      0.50000000E+00
      0.15000000E+00     -0.30000000E-01      0.50000000E+00
      0.16000000E+00     -0.30000000E-01      0.50000000E+00
      0.17000000E+00     -0.30000000E-01      0.50000000E+00
      0.18000000E+00     -0.30000000E-01      0.50000000E+00
      0.19000000E+00     -0.30000000E-01      0.50000000E+00
      0.20000000E+00     -0.30000000E-01      0.50000000E+00
      0.21000000E+00     -0.30000000E-01      0.50000000E+00
      0.22000000E+00     -0.30000000E-01      0.50000000E+00
      0.23000000E+00     -0.30000000E-01      0.50000000E+00
      0.24000000E+00     -0.30000000E-01      0.50000000E+00
      0.25000000E+00     -0.30000000E-01      0.50000000E+00
      0.26000000E+00     -0.30000000E-01      0.50000000E+00
      0.27000000E+00     -0.30000000E-01      0.50000000E+00
      0.28000000E+00     -0.30000000E-01      0.50000000E+00
      0.29000000E+00     -0.30000000E-01      0.50000000E+00
      0.30000000E+00     -0.30000000E-01      0.50000000E+00
      0.31000000E+00     -0.30000000E-01      0.50000000E+00
      0.32000000E+00     -0.30000000E-01      0.50000000E+00
      0.33000000E+00     -0.30000000E-01      0.50000000E+00
      0.34000000E+00     -0.30000000E-01      0.50000000E+00
      0.35000000E+00     -0.30000000E-01      0.50000000E+00
      0.36000000E+00     -0.30000000E-01      0.50000000E+00
      0.37000000E+00     -0.30000000E-01      0.50000000E+00
[...]
POINT_DATA      8652
CELL_DATA     32557
SCALARS Resistivity(ohm.m) double 1
LOOKUP_TABLE default
            21.08380            25.72574            18.52589            27.68007            24.03004            35.95848            41.17954            36.10774            30.09861            43.68837            42.12898            44.73772            36.96156            28.88705            17.41974            18.97628            16.56189            55.34912            26.57702            42.66257            32.42423            20.97811            15.34882            38.12776            19.95287            20.81921            35.06927            34.50958            44.04196            17.64271            29.57406            37.95747            20.25419            33.11581            24.26557            30.90182            20.41639            57.05330            19.36511            38.28958            25.58241            42.44966            33.17337            28.26115            39.54446            41.54439            25.58419            27.08769            23.59222            43.21764            15.01340            57.35801            38.25820            34.17451            43.81000            21.68400            37.99982            45.24160            59.81770            18.07575            51.36780            18.20451            18.41877            16.65424            56.56508            29.02652            47.96171            24.63983            36.47841            37.05106            22.46640            20.16621            23.85598            33.86913            39.31505            19.10590            37.14904            25.41773            15.82412            18.60670            32.85702            30.19350            31.67831            30.37790            29.90510            17.79085            38.15214            39.51275            31.83813            32.79474            17.77586            35.05903            41.18129            33.24300            30.04905            32.48105            68.96694            37.34656            20.72790            44.86337            41.86628            16.50335            37.57662            33.12283            31.84856            27.45601            21.85853            16.30181            36.83283            16.96305            57.44999            27.87196            24.56731            27.43060            43.42914            30.54837            21.13554            42.99410            22.04102            43.26736            30.57609            22.58761            32.82994            44.47386            21.94673            39.46533            42.74631            29.42472            22.48410            21.22220            29.80425            30.75766            31.73679            31.06641            36.38939            22.70311            33.61746            33.63400            29.72945            27.39765            41.93381            33.12033            33.35904            30.45620            41.38935            59.69274            36.62556            18.59937            25.21284            16.34180            23.54379            17.52928            21.66253            32.55145            37.98400            18.60770            26.30858            45.72165            32.50334            61.89828            16.34041            36.94112            16.55047            37.31010            32.77369            12.91281            38.47581            18.27513            23.68725            20.34100            32.64834            45.69011            28.68655            24.82601            45.81805            23.68530            22.21005            24.75540            28.87528            30.05714            26.59338            31.91025            35.47109            48.03228            50.52326            39.36943            19.85268            28.34020            30.56213            31.05297            21.59752            13.15855            21.76473            38.65377            31.71317            38.53681            27.93981            33.05577            31.39932            34.52501            16.58064            29.20490            38.34585            26.85497            21.25189            41.44543            24.86200            32.36148            30.90745            36.63079            37.34110            21.57275            36.47425            31.53757            23.10329            34.47892            21.65128            37.01052            27.88952            24.26551            33.58771            45.73302            30.61034            50.31831            23.61372            19.38801            60.19403            38.78185            31.68182            38.07908            51.51889            33.39506            18.22465            20.02162            18.63811            37.94261            35.92304            32.39810            34.46073            20.40590            36.07306            41.81312            25.06276            21.74213            19.59487            33.33016            37.04302            35.70700            33.19061            20.16120            28.20286            23.88318            21.92435            20.53194            39.24525            47.49037            41.14465            20.13994            41.67940            31.74182            18.64898            31.53037            16.76839            21.86801            37.16920            23.15037            31.91128            17.55717            17.31583            35.24074            19.23320            13.30269            17.52539            45.96871            20.82688            17.21088            44.70257            21.71698            30.27502            17.59013            35.11683            24.21505            29.42435            35.84175            17.95387            26.68642            18.82255            21.84772            35.83490            33.59751            40.66906            27.55147            28.13559            33.63195            29.93361            41.63326            42.84286            29.93325            25.21036            23.08030            29.01120            22.98452            55.05105            24.47471            17.17725            19.21794            17.93617            16.71290            31.04752            41.27474            18.62602            66.72470            16.32354            37.88593            40.19322            30.26324            21.63946            36.46915            42.28410            46.30945            33.37790            46.03830            38.04428            20.24229            40.25858            29.07897            33.52494            26.32635            20.01915            42.02807            21.11497            27.66813            20.73969            36.61226            49.56425            35.41330            24.24205            22.29611            28.24423            35.26737            21.33926            27.39169            38.06288            30.93255            44.76027            37.45451            50.85047            26.56931            49.15288            18.96468            30.71104            43.84879            31.93264            22.00050            27.99626            30.37885            18.98181            26.34615            19.31378            25.16729            39.70392            45.60464            52.23294            42.38928            35.10328            47.87661            32.19872            39.88427            34.22149            23.00817            36.59334            39.17448            29.34981            30.65346            28.95666            22.28958            34.74810            25.64055            32.73381            26.00190            20.05312            33.41695            52.29745            17.10997            36.51721            18.67626            27.00264            27.68373            26.40712            41.25535            39.09182            39.85167            42.09703            37.83996            26.82475            17.86204            34.91792            33.98421            22.45209            34.91157            21.28501            17.03668            37.10893            26.95707            45.09959            68.77938            45.24963            35.68547            36.56174            31.44527            30.30307            18.56326            36.38830            33.39963            17.95366            22.40834            22.98215            23.35856            36.13374            41.90840            21.27606            57.13065            29.69747            45.02153            37.49495            33.93080            28.55761            20.45185            37.66977            36.40560            37.07467            39.16180            24.35093            34.39705            30.75634            33.54977            38.63060            36.76973            22.94741            31.78272            27.73562            22.16265            38.35629            49.70810            30.21006            33.36916            18.59820            33.92324            31.92755            44.29545            48.33494            44.65585            41.71767            23.20147            32.55159            16.79111            21.39398            30.45578            40.07470            15.06644            29.78287            24.89051            32.45902            37.03042            24.95911            42.39070            37.01602            31.61848            32.18337            44.14932            20.61267            25.10846            27.97409            23.39404            19.20561            45.31746            25.46514            23.25503            39.32219            37.74666            30.75527            37.52617            30.93099            20.96110            22.04321            23.23475            36.28505            33.52913            24.94840            27.26409            39.25721            25.82956            33.22415            47.66062            17.58538            31.86221            26.68774            37.18333            32.82246            26.00785            29.58891            22.21672            54.71719            39.90929            38.36580            30.56139            44.48809            34.05782            29.57248            31.64535            25.10503            36.66085            24.12367            33.97665            22.07754            31.21472            19.46356            32.23505            32.68867            13.46187            30.56891            20.79876            38.53706            38.03216            30.30144            30.17789            16.68895            41.64049            37.69705            34.37177            36.62982            39.90886            37.67859            32.76231            23.62582            41.10142            32.61235            24.38641            43.21363            47.15195            30.98480            29.15334            27.67233            35.42840            37.74919            28.72989            18.66853            16.44703            40.40327            38.93492            39.89883            41.75364            35.93923            32.51203            19.91951            19.27415            16.12052            39.38074            19.35808            20.29821            34.09113            21.33552            19.56616            45.21683            30.65722            55.41661            22.05791            15.83408            14.89397            39.72531            23.03543            41.31870            28.22568            18.32333            15.37131            33.80738            17.66637            31.51784            36.81633            30.98436            23.66011            26.23023            15.78592            27.87877            22.53560            41.45557            13.35715            29.45475            38.04094            33.65025            33.53250            23.03403            31.03126            37.08234            21.23046            33.24004            28.44924            40.10935            21.81941            32.92314            21.32708            38.34273            35.00064            17.16112            45.65155            25.31108            23.95010            40.72827            40.94713            20.47638            47.07414            18.08456            23.82066            33.86630            33.28917            20.57538            39.73174            30.40028            41.09866            29.73236            43.95994            28.26175            18.95822            33.40150            34.00319            24.32899            28.90537            26.89308            26.28855            39.25162            37.03733            39.87651            34.22922            39.40110            58.27384            29.43497            37.61916            27.66909            30.51584            27.88124            28.25006            33.07135            36.03374            20.76558            30.16910            16.03477            17.22812            36.21794            21.25620            26.89149            49.43726            33.94533            17.48529            52.25073            22.22533            31.61656            29.31652            32.25832            23.40806            40.90727            22.68502            18.89251            26.55680            32.86919            28.70851            35.55763            44.80083            44.12412            23.69706            32.39114            35.83539            17.95252            42.59828            59.47182            39.98741            13.33777            18.10621            32.37796            39.23840            31.95791            38.82189            36.46595            33.71995            24.33315            24.78210            28.51158            35.66194            19.15705            45.30548            44.65711            35.69476            45.02291            28.99657            32.54056            34.13094            40.30342            32.55784            33.70178            36.94821            38.83849            23.39524            40.69297            55.53148            29.98668            31.47566            27.85297            21.51108            21.01637            33.25173            21.52447            34.97835            18.64847            21.48593            45.05466            38.12653            33.67721            32.16315            33.95462            45.39562            21.77550            32.72675            18.26730            22.43645            32.31184            18.35100            17.09786            33.30738            38.46147            41.86854            39.71939            31.90776            47.10227            19.08910            45.53113            23.43201            50.05619            32.65661            35.27136            41.85809            39.76443            32.78334            31.94485            37.10635            26.36466            20.69320            34.31430            16.27096            38.57751            32.54266            17.20603            28.04308            24.06816            21.57915            35.98392            33.40823            19.17605            39.51799            37.63830            25.04001            19.57749            21.53040            45.73198            50.21849            49.90906            49.37144            38.95322            48.67339            17.21579            27.78519            25.50486            27.94039            32.44760            37.26532            41.17524            18.83454            40.99484            29.18561            28.73591            45.81764            33.57856            16.77366            30.92086            36.70504            40.39844            25.01256            36.00302            18.79181            56.81467            30.71426            43.60264            38.64741            32.01913            32.28710            33.52581            34.12079            23.12201            50.62813            40.33066            29.80250            36.78114            19.17597            44.39575            38.09620            32.98122            15.70737            26.15236            28.70722            19.94745            31.94591            17.70841            31.43526            29.52892            15.47948            18.33657            39.59477            25.92498            35.90296            28.03166            36.38736            44.69483            14.97433            22.53693            31.69778            45.79093            31.73685            25.93658            17.28394            32.61738            18.94076            18.59020            23.92216            17.30948            20.73311            24.72537            31.90705            21.65201            33.43614            23.18963            65.02195            34.89913            38.67178            21.57129            44.77970            26.27127            39.13315            13.73872            18.78283            39.44329            27.41247            22.10594            23.65892            37.59844            59.47498            44.36530            37.20543            38.59434            35.01303            30.48190            20.18884            21.24513            16.78612            47.95408            27.92378            29.93895            17.92376            25.86828            39.51630            42.34710            34.43745            62.14744            30.62027            18.54012            16.30911            45.98706            21.70992            30.15440            30.91587            51.85128            27.12167            20.67208            18.69284            45.73104            45.37715            38.09001            31.83942            39.02914            18.85528            40.21161            25.57934            38.30364            20.44477            38.77185            22.03906            28.29445            22.73172            31.09463            40.06036            17.24044            31.99635            44.22154            27.06470            36.06316            21.13006            34.91562            49.66769            34.86816            32.22060            32.37171            47.42059            37.74977            16.32038            23.23235            28.99042            28.05989            37.84510            17.89969            14.45299            45.78105            27.50965            17.64390            21.26136            22.39575            12.87997            39.90849            18.24491            52.28598            22.75835            50.10599            35.47900            45.35106            39.07122            29.17625            20.13989            19.48501            33.85729            41.84985            30.19995            37.38797            24.29681            39.65645            39.62413            39.58190            46.10272            38.60762            32.10357            16.43414            47.30645            39.75246            30.29921            31.38037            32.38752            13.88285            45.45543            40.96219            21.89896            34.91075            59.28684            29.14694            36.41395            30.09844            40.59262            17.93056            35.64462            38.45921            50.84925            24.02884            33.04590            18.61543            40.44496            48.87551            34.00943            27.09755            36.06801            43.60144            35.79280            55.45660            18.41469            14.70326            34.38531            47.68148            31.25457            39.00212            42.32816            21.18305            19.64296            34.53168            41.05827            41.48663            37.78529            22.23858            46.38470            24.02021            31.24295            43.17349            27.69236  